unknown system                          
   1.00000000000000     
     8.000000    0.000000    0.000000
     0.000000    8.000000    0.000000
     0.000000    0.000000    8.000000
   H    C 
     4     2
Direct
  0.000000  0.115354  0.154712
  0.000000  0.884646  0.154712
  0.000000  0.115354  0.845288
  0.000000  0.884646  0.845288
  0.000000  0.000000  0.083435
  0.000000  0.000000  0.916565
 
   64   64   64
  1269.5      1214.7      1062.6      848.05      620.17      423.90      281.37      188.77      129.55      89.222    
  60.213      39.140      24.248      14.752      9.7495      7.2272      5.1215      3.0396      1.7618      1.3638    
  1.0291     0.47484     0.22893     0.40826     0.40666     0.24656E-01 -.16478     0.91162E-01 0.24657     -.19664E-01
 -.21703     0.15996E-01 0.22925     0.15996E-01 -.21703     -.19664E-01 0.24657     0.91162E-01 -.16478     0.24656E-01
 0.40666     0.40826     0.22893     0.47484      1.0291      1.3638      1.7618      3.0396      5.1215      7.2272    
  9.7495      14.752      24.248      39.140      60.213      89.222      129.55      188.77      281.37      423.90    
  620.17      848.05      1062.6      1214.7      1197.7      1146.1      1003.1      801.64      588.03      404.06    
  270.14      182.60      126.05      87.076      58.773      38.142      23.632      14.445      9.5951      7.1065    
  5.0365      3.0160      1.7579      1.3341     0.99915     0.48209     0.24576     0.39226     0.37923     0.29483E-01
 -.14305     0.86155E-01 0.22481     -.15738E-01 -.19419     0.14562E-01 0.20599     0.14562E-01 -.19419     -.15738E-01
 0.22481     0.86155E-01 -.14305     0.29483E-01 0.37923     0.39226     0.24576     0.48209     0.99915      1.3341    
  1.7579      3.0160      5.0365      7.1065      9.5951      14.445      23.632      38.142      58.773      87.076    
  126.05      182.60      270.14      404.06      588.03      801.64      1003.1      1146.1      1008.0      965.00    
  846.01      679.28      503.15      351.38      239.97      165.72      116.24      80.950      54.636      35.305    
  21.904      13.587      9.1614      6.7731      4.8013      2.9415      1.7377      1.2531     0.92135     0.49951    
 0.28714     0.35093     0.30955     0.41191E-01 -.88940E-01 0.73048E-01 0.16976     -.61170E-02 -.13702     0.10845E-01
 0.14751     0.10845E-01 -.13702     -.61170E-02 0.16976     0.73048E-01 -.88940E-01 0.41191E-01 0.30955     0.35093    
 0.28714     0.49951     0.92135      1.2531      1.7377      2.9415      4.8013      6.7731      9.1614      13.587    
  21.904      35.305      54.636      80.950      116.24      165.72      239.97      351.38      503.15      679.28    
  846.01      965.00      762.30      730.58      643.21      521.48      393.27      282.31      199.44      142.19    
  101.96      71.698      48.335      31.076      19.392      12.340      8.5216      6.2943      4.4597      2.8045    
  1.6802      1.1407     0.82382     0.51639     0.33145     0.29975     0.22700     0.53368E-01 -.27898E-01 0.56822E-01
 0.10562     0.41732E-02 -.72019E-01 0.62836E-02 0.80311E-01 0.62836E-02 -.72019E-01 0.41732E-02 0.10562     0.56822E-01
 -.27898E-01 0.53368E-01 0.22700     0.29975     0.33145     0.51639     0.82382      1.1407      1.6802      2.8045    
  4.4597      6.2943      8.5216      12.340      19.392      31.076      48.335      71.698      101.96      142.19    
  199.44      282.31      393.27      521.48      643.21      730.58      526.38      505.76      449.08      370.26    
  287.03      214.04      157.76      116.58      85.439      60.513      40.681      26.093      16.518      10.900    
  7.7566      5.7350      4.0497      2.5900      1.5645      1.0162     0.73261     0.52091     0.35741     0.25338    
 0.15932     0.60139E-01 0.16960E-01 0.43242E-01 0.55695E-01 0.10526E-01 -.23974E-01 0.24549E-02 0.29547E-01 0.24549E-02
 -.23974E-01 0.10526E-01 0.55695E-01 0.43242E-01 0.16960E-01 0.60139E-01 0.15932     0.25338     0.35741     0.52091    
 0.73261      1.0162      1.5645      2.5900      4.0497      5.7350      7.7566      10.900      16.518      26.093    
  40.681      60.513      85.439      116.58      157.76      214.04      287.03      370.26      449.08      505.76    
  341.89      329.95      297.07      251.06      201.76      157.22      120.98      92.247      68.609      48.674    
  32.622      21.029      13.674      9.4350      6.9281      5.1290      3.5856      2.2913      1.3860     0.89163    
 0.65807     0.50534     0.35500     0.21839     0.11840     0.59499E-01 0.37232E-01 0.35912E-01 0.30216E-01 0.11541E-01
 -.24109E-02 0.38429E-03 0.56263E-02 0.38429E-03 -.24109E-02 0.11541E-01 0.30216E-01 0.35912E-01 0.37232E-01 0.59499E-01
 0.11840     0.21839     0.35500     0.50534     0.65807     0.89163      1.3860      2.2913      3.5856      5.1290    
  6.9281      9.4350      13.674      21.029      32.622      48.674      68.609      92.247      120.98      157.22    
  201.76      251.06      297.07      329.95      217.96      211.61      193.97      168.80      140.94      114.39    
  91.023      70.714      52.802      37.331      25.036      16.427      11.126      8.0516      6.0716      4.4804    
  3.0698      1.9254      1.1656     0.77329     0.59554     0.46931     0.32771     0.19224     0.98829E-01 0.53660E-01
 0.39575E-01 0.34805E-01 0.24699E-01 0.93036E-02 -.46687E-03 0.14674E-03 0.26217E-02 0.14674E-03 -.46687E-03 0.93036E-02
 0.24699E-01 0.34805E-01 0.39575E-01 0.53660E-01 0.98829E-01 0.19224     0.32771     0.46931     0.59554     0.77329    
  1.1656      1.9254      3.0698      4.4804      6.0716      8.0516      11.126      16.427      25.036      37.331    
  52.802      70.714      91.023      114.39      140.94      168.80      193.97      211.61      141.90      138.60    
  129.26      115.49      99.404      82.906      67.077      52.291      38.845      27.367      18.551      12.596    
  8.9840      6.7931      5.2028      3.7895      2.5181      1.5366     0.94208     0.66630     0.53697     0.41993    
 0.28650     0.16757     0.87115E-01 0.46773E-01 0.36706E-01 0.37356E-01 0.27702E-01 0.71443E-02 -.46216E-02 0.88801E-03
 0.70810E-02 0.88801E-03 -.46216E-02 0.71443E-02 0.27702E-01 0.37356E-01 0.36706E-01 0.46773E-01 0.87115E-01 0.16757    
 0.28650     0.41993     0.53697     0.66630     0.94208      1.5366      2.5181      3.7895      5.2028      6.7931    
  8.9840      12.596      18.551      27.367      38.845      52.291      67.077      82.906      99.404      115.49    
  129.26      138.60      95.477      93.654      88.380      80.246      70.145      59.047      47.770      36.970    
  27.281      19.318      13.461      9.6140      7.2419      5.6543      4.3304      3.0765      1.9728      1.1810    
 0.75292     0.57656     0.48050     0.36753     0.24145     0.13846     0.73079E-01 0.42047E-01 0.37335E-01 0.40556E-01
 0.30078E-01 0.69321E-02 -.57144E-02 0.13681E-02 0.87373E-02 0.13681E-02 -.57144E-02 0.69321E-02 0.30078E-01 0.40556E-01
 0.37335E-01 0.42047E-01 0.73079E-01 0.13846     0.24145     0.36753     0.48050     0.57656     0.75292      1.1810    
  1.9728      3.0765      4.3304      5.6543      7.2419      9.6140      13.461      19.318      27.281      36.970    
  47.770      59.047      70.145      80.246      88.380      93.654      65.134      63.985      60.598      55.204    
  48.260      40.419      32.405      24.891      18.423      13.352      9.7512      7.3891      5.8245      4.6081    
  3.4703      2.3858      1.4874     0.89971     0.61644     0.50751     0.42900     0.31889     0.19769     0.10512    
 0.55599E-01 0.40177E-01 0.41860E-01 0.42004E-01 0.28733E-01 0.81101E-02 -.27808E-02 0.85431E-03 0.53597E-02 0.85431E-03
 -.27808E-02 0.81101E-02 0.28733E-01 0.42004E-01 0.41860E-01 0.40177E-01 0.55599E-01 0.10512     0.19769     0.31889    
 0.42900     0.50751     0.61644     0.89971      1.4874      2.3858      3.4703      4.6081      5.8245      7.3891    
  9.7512      13.352      18.423      24.891      32.405      40.419      48.260      55.204      60.598      63.985    
  43.727      42.890      40.432      36.553      31.641      26.240      20.924      16.165      12.253      9.2907    
  7.1978      5.7452      4.6368      3.6349      2.6564      1.7706      1.0995     0.70224     0.52728     0.45518    
 0.38199     0.27336     0.15666     0.73622E-01 0.40005E-01 0.39711E-01 0.45335E-01 0.40106E-01 0.24588E-01 0.88508E-02
 0.68383E-03 -.30606E-03 0.39760E-03 -.30606E-03 0.68383E-03 0.88508E-02 0.24588E-01 0.40106E-01 0.45335E-01 0.39711E-01
 0.40005E-01 0.73622E-01 0.15666     0.27336     0.38199     0.45518     0.52728     0.70224      1.0995      1.7706    
  2.6564      3.6349      4.6368      5.7452      7.1978      9.2907      12.253      16.165      20.924      26.240    
  31.641      36.553      40.432      42.890      28.233      27.598      25.782      23.041      19.762      16.369    
  13.216      10.517      8.3557      6.7072      5.4685      4.4837      3.6008      2.7428      1.9367      1.2712    
 0.81636     0.57074     0.46512     0.40752     0.33232     0.22621     0.11953     0.50714E-01 0.30995E-01 0.38620E-01
 0.43731E-01 0.34628E-01 0.19227E-01 0.78376E-02 0.20517E-02 -.10750E-02 -.23038E-02 -.10750E-02 0.20517E-02 0.78376E-02
 0.19227E-01 0.34628E-01 0.43731E-01 0.38620E-01 0.30995E-01 0.50714E-01 0.11953     0.22621     0.33232     0.40752    
 0.46512     0.57074     0.81636      1.2712      1.9367      2.7428      3.6008      4.4837      5.4685      6.7072    
  8.3557      10.517      13.216      16.369      19.762      23.041      25.782      27.598      17.464      17.033    
  15.836      14.117      12.183      10.297      8.6183      7.2031      6.0363      5.0660      4.2226      3.4389    
  2.6804      1.9661      1.3547     0.90195     0.62169     0.47832     0.40835     0.35105     0.27263     0.17566    
 0.88538E-01 0.38569E-01 0.28271E-01 0.35792E-01 0.37447E-01 0.27099E-01 0.13608E-01 0.51273E-02 0.13997E-02 -.79784E-03
 -.17930E-02 -.79784E-03 0.13997E-02 0.51273E-02 0.13608E-01 0.27099E-01 0.37447E-01 0.35792E-01 0.28271E-01 0.38569E-01
 0.88538E-01 0.17566     0.27263     0.35105     0.40835     0.47832     0.62169     0.90195      1.3547      1.9661    
  2.6804      3.4389      4.2226      5.0660      6.0363      7.2031      8.6183      10.297      12.183      14.117    
  15.836      17.033      10.698      10.451      9.7792      8.8493      7.8438      6.8892      6.0361      5.2765    
  4.5739      3.8891      3.2019      2.5221      1.8868      1.3437     0.92896     0.65190     0.49117     0.40410    
 0.34459     0.28081     0.20415     0.12608     0.65649E-01 0.34487E-01 0.28403E-01 0.31526E-01 0.29550E-01 0.19694E-01
 0.84541E-02 0.18627E-02 0.81285E-04 0.16065E-03 0.28890E-03 0.16065E-03 0.81285E-04 0.18627E-02 0.84541E-02 0.19694E-01
 0.29550E-01 0.31526E-01 0.28403E-01 0.34487E-01 0.65649E-01 0.12608     0.20415     0.28081     0.34459     0.40410    
 0.49117     0.65190     0.92896      1.3437      1.8868      2.5221      3.2019      3.8891      4.5739      5.2765    
  6.0361      6.8892      7.8438      8.8493      9.7792      10.451      6.9163      6.7750      6.3989      5.8986    
  5.3794      4.8925      4.4322      3.9624      3.4484      2.8817      2.2909      1.7308      1.2552     0.89389    
 0.64695     0.49352     0.40156     0.33675     0.27365     0.20463     0.13769     0.84596E-01 0.50898E-01 0.34506E-01
 0.29053E-01 0.26916E-01 0.22108E-01 0.13415E-01 0.44754E-02 -.49518E-03 -.81722E-03 0.91812E-03 0.18606E-02 0.91812E-03
 -.81722E-03 -.49518E-03 0.44754E-02 0.13415E-01 0.22108E-01 0.26916E-01 0.29053E-01 0.34506E-01 0.50898E-01 0.84596E-01
 0.13769     0.20463     0.27365     0.33675     0.40156     0.49352     0.64695     0.89389      1.2552      1.7308    
  2.2909      2.8817      3.4484      3.9624      4.4322      4.8925      5.3794      5.8986      6.3989      6.7750    
  4.7703      4.6709      4.4139      4.0911      3.7797      3.4969      3.2058      2.8584      2.4367      1.9674    
  1.5065      1.1096     0.80804     0.60287     0.47414     0.39343     0.33268     0.27143     0.20337     0.13692    
 0.85662E-01 0.55831E-01 0.42407E-01 0.35806E-01 0.29763E-01 0.22793E-01 0.15300E-01 0.79443E-02 0.20116E-02 -.94590E-03
 -.69283E-03 0.10661E-02 0.20030E-02 0.10661E-02 -.69283E-03 -.94590E-03 0.20116E-02 0.79443E-02 0.15300E-01 0.22793E-01
 0.29763E-01 0.35806E-01 0.42407E-01 0.55831E-01 0.85662E-01 0.13692     0.20337     0.27143     0.33268     0.39343    
 0.47414     0.60287     0.80804      1.1096      1.5065      1.9674      2.4367      2.8584      3.2058      3.4969    
  3.7797      4.0911      4.4139      4.6709      3.2317      3.1678      3.0044      2.8026      2.6063      2.4120    
  2.1836      1.8945      1.5571      1.2159     0.91802     0.68948     0.53191     0.43179     0.36876     0.32058    
 0.26912     0.20755     0.14254     0.87823E-01 0.53603E-01 0.39854E-01 0.37620E-01 0.36089E-01 0.29508E-01 0.19041E-01
 0.92395E-02 0.32151E-02 0.85083E-03 0.42145E-03 0.62372E-03 0.93658E-03 0.10861E-02 0.93658E-03 0.62372E-03 0.42145E-03
 0.85083E-03 0.32151E-02 0.92395E-02 0.19041E-01 0.29508E-01 0.36089E-01 0.37620E-01 0.39854E-01 0.53603E-01 0.87823E-01
 0.14254     0.20755     0.26912     0.32058     0.36876     0.43179     0.53191     0.68948     0.91802      1.2159    
  1.5571      1.8945      2.1836      2.4120      2.6063      2.8026      3.0044      3.1678      2.0241      2.0000    
  1.9358      1.8456      1.7318      1.5816      1.3842      1.1504     0.91346     0.70942     0.55652     0.45173    
 0.38170     0.33300     0.29380     0.25308     0.20394     0.14837     0.96282E-01 0.58252E-01 0.38469E-01 0.33211E-01
 0.34142E-01 0.33109E-01 0.26119E-01 0.14909E-01 0.48270E-02 0.11255E-03 0.51719E-03 0.23433E-02 0.24514E-02 0.92282E-03
 -.12572E-04 0.92282E-03 0.24514E-02 0.23433E-02 0.51719E-03 0.11255E-03 0.48270E-02 0.14909E-01 0.26119E-01 0.33109E-01
 0.34142E-01 0.33211E-01 0.38469E-01 0.58252E-01 0.96282E-01 0.14837     0.20394     0.25308     0.29380     0.33300    
 0.38170     0.45173     0.55652     0.70942     0.91346      1.1504      1.3842      1.5816      1.7318      1.8456    
  1.9358      2.0000      1.2584      1.2487      1.2201      1.1709      1.0932     0.97900     0.83345     0.67858    
 0.54247     0.44264     0.37835     0.33629     0.30165     0.26559     0.22576     0.18324     0.14004     0.99227E-01
 0.65486E-01 0.43220E-01 0.33071E-01 0.30743E-01 0.29930E-01 0.26322E-01 0.19103E-01 0.10087E-01 0.24712E-02 -.79029E-03
 0.57048E-03 0.32308E-02 0.33524E-02 0.87240E-03 -.68590E-03 0.87240E-03 0.33524E-02 0.32308E-02 0.57048E-03 -.79029E-03
 0.24712E-02 0.10087E-01 0.19103E-01 0.26322E-01 0.29930E-01 0.30743E-01 0.33071E-01 0.43220E-01 0.65486E-01 0.99227E-01
 0.14004     0.18324     0.22576     0.26559     0.30165     0.33629     0.37835     0.44264     0.54247     0.67858    
 0.83345     0.97900      1.0932      1.1709      1.2201      1.2487     0.85989     0.84133     0.79322     0.73062    
 0.66271     0.58954     0.51061     0.43283     0.36809     0.32390     0.29698     0.27519     0.24597     0.20507    
 0.15868     0.11707     0.85913E-01 0.63999E-01 0.48042E-01 0.37035E-01 0.30943E-01 0.27640E-01 0.23749E-01 0.17898E-01
 0.11299E-01 0.55204E-02 0.14074E-02 -.27094E-03 0.67899E-03 0.24567E-02 0.24164E-02 0.39221E-03 -.87723E-03 0.39221E-03
 0.24164E-02 0.24567E-02 0.67899E-03 -.27094E-03 0.14074E-02 0.55204E-02 0.11299E-01 0.17898E-01 0.23749E-01 0.27640E-01
 0.30943E-01 0.37035E-01 0.48042E-01 0.63999E-01 0.85913E-01 0.11707     0.15868     0.20507     0.24597     0.27519    
 0.29698     0.32390     0.36809     0.43283     0.51061     0.58954     0.66271     0.73062     0.79322     0.84133    
 0.57015     0.55493     0.51707     0.47245     0.43109     0.39196     0.35050     0.30837     0.27368     0.25203    
 0.23883     0.22150     0.18995     0.14545     0.99867E-01 0.66148E-01 0.48824E-01 0.42745E-01 0.39607E-01 0.34740E-01
 0.28242E-01 0.21759E-01 0.15951E-01 0.10698E-01 0.61744E-02 0.28744E-02 0.10431E-02 0.48056E-03 0.65247E-03 0.81265E-03
 0.39815E-03 -.41638E-03 -.84121E-03 -.41638E-03 0.39815E-03 0.81265E-03 0.65247E-03 0.48056E-03 0.10431E-02 0.28744E-02
 0.61744E-02 0.10698E-01 0.15951E-01 0.21759E-01 0.28242E-01 0.34740E-01 0.39607E-01 0.42745E-01 0.48824E-01 0.66148E-01
 0.99867E-01 0.14545     0.18995     0.22150     0.23883     0.25203     0.27368     0.30837     0.35050     0.39196    
 0.43109     0.47245     0.51707     0.55493     0.30401     0.30885     0.32022     0.32931     0.32505     0.30092    
 0.26129     0.22033     0.19218     0.17996     0.17376     0.15958     0.13095     0.93225E-01 0.58450E-01 0.36599E-01
 0.29767E-01 0.32163E-01 0.34847E-01 0.31862E-01 0.23516E-01 0.14410E-01 0.84003E-02 0.56766E-02 0.42473E-02 0.29038E-02
 0.18334E-02 0.11819E-02 0.48110E-03 -.41683E-03 -.96514E-03 -.89064E-03 -.72403E-03 -.89064E-03 -.96514E-03 -.41683E-03
 0.48110E-03 0.11819E-02 0.18334E-02 0.29038E-02 0.42473E-02 0.56766E-02 0.84003E-02 0.14410E-01 0.23516E-01 0.31862E-01
 0.34847E-01 0.32163E-01 0.29767E-01 0.36599E-01 0.58450E-01 0.93225E-01 0.13095     0.15958     0.17376     0.17996    
 0.19218     0.22033     0.26129     0.30092     0.32505     0.32931     0.32022     0.30885     0.16637     0.17670    
 0.20126     0.22410     0.22890     0.20961     0.17472     0.14075     0.11976     0.11182     0.10787     0.98377E-01
 0.80049E-01 0.56695E-01 0.35955E-01 0.24371E-01 0.23185E-01 0.27483E-01 0.29864E-01 0.25988E-01 0.17196E-01 0.82645E-02
 0.30699E-02 0.21636E-02 0.34635E-02 0.44456E-02 0.38527E-02 0.20536E-02 0.23633E-03 -.73153E-03 -.83357E-03 -.58217E-03
 -.44421E-03 -.58217E-03 -.83357E-03 -.73153E-03 0.23633E-03 0.20536E-02 0.38527E-02 0.44456E-02 0.34635E-02 0.21636E-02
 0.30699E-02 0.82645E-02 0.17196E-01 0.25988E-01 0.29864E-01 0.27483E-01 0.23185E-01 0.24371E-01 0.35955E-01 0.56695E-01
 0.80049E-01 0.98377E-01 0.10787     0.11182     0.11976     0.14075     0.17472     0.20961     0.22890     0.22410    
 0.20126     0.17670     0.15491     0.14996     0.13811     0.12490     0.11289     0.10122     0.89207E-01 0.77970E-01
 0.68894E-01 0.62426E-01 0.58163E-01 0.54383E-01 0.48007E-01 0.37533E-01 0.26275E-01 0.20134E-01 0.20991E-01 0.24183E-01
 0.23735E-01 0.18354E-01 0.10986E-01 0.45920E-02 0.59554E-03 -.83250E-04 0.23909E-02 0.53489E-02 0.54821E-02 0.26606E-02
 -.65172E-04 -.62063E-03 -.24732E-04 0.12907E-03 -.63331E-05 0.12907E-03 -.24732E-04 -.62063E-03 -.65172E-04 0.26606E-02
 0.54821E-02 0.53489E-02 0.23909E-02 -.83250E-04 0.59554E-03 0.45920E-02 0.10986E-01 0.18354E-01 0.23735E-01 0.24183E-01
 0.20991E-01 0.20134E-01 0.26275E-01 0.37533E-01 0.48007E-01 0.54383E-01 0.58163E-01 0.62426E-01 0.68894E-01 0.77970E-01
 0.89207E-01 0.10122     0.11289     0.12490     0.13811     0.14996     0.11952     0.10898     0.84075E-01 0.58974E-01
 0.43881E-01 0.39614E-01 0.40647E-01 0.40988E-01 0.38152E-01 0.34117E-01 0.32644E-01 0.34303E-01 0.34791E-01 0.30036E-01
 0.22119E-01 0.17243E-01 0.17762E-01 0.19404E-01 0.17352E-01 0.11983E-01 0.66897E-02 0.29081E-02 0.22957E-03 -.60787E-03
 0.14264E-02 0.44581E-02 0.49007E-02 0.22132E-02 -.40901E-03 -.67378E-03 0.20663E-03 0.41417E-03 0.24217E-03 0.41417E-03
 0.20663E-03 -.67378E-03 -.40901E-03 0.22132E-02 0.49007E-02 0.44581E-02 0.14264E-02 -.60787E-03 0.22957E-03 0.29081E-02
 0.66897E-02 0.11983E-01 0.17352E-01 0.19404E-01 0.17762E-01 0.17243E-01 0.22119E-01 0.30036E-01 0.34791E-01 0.34303E-01
 0.32644E-01 0.34117E-01 0.38152E-01 0.40988E-01 0.40647E-01 0.39614E-01 0.43881E-01 0.58974E-01 0.84075E-01 0.10898    
 0.20090E-01 0.24046E-01 0.33559E-01 0.42890E-01 0.46458E-01 0.42546E-01 0.34115E-01 0.26012E-01 0.21629E-01 0.21854E-01
 0.25547E-01 0.29755E-01 0.30637E-01 0.26368E-01 0.19391E-01 0.14273E-01 0.12881E-01 0.12898E-01 0.11379E-01 0.81638E-02
 0.49368E-02 0.25484E-02 0.86467E-03 0.22606E-03 0.10831E-02 0.24382E-02 0.24535E-02 0.85918E-03 -.67235E-03 -.88567E-03
 -.34956E-03 -.72146E-04 -.73039E-04 -.72146E-04 -.34956E-03 -.88567E-03 -.67235E-03 0.85918E-03 0.24535E-02 0.24382E-02
 0.10831E-02 0.22606E-03 0.86467E-03 0.25484E-02 0.49368E-02 0.81638E-02 0.11379E-01 0.12898E-01 0.12881E-01 0.14273E-01
 0.19391E-01 0.26368E-01 0.30637E-01 0.29755E-01 0.25547E-01 0.21854E-01 0.21629E-01 0.26012E-01 0.34115E-01 0.42546E-01
 0.46458E-01 0.42890E-01 0.33559E-01 0.24046E-01 -.21203E-01 -.99750E-02 0.16396E-01 0.41706E-01 0.52847E-01 0.47808E-01
 0.34349E-01 0.22532E-01 0.18008E-01 0.20170E-01 0.24641E-01 0.27130E-01 0.25881E-01 0.21694E-01 0.16418E-01 0.11624E-01
 0.82372E-02 0.65549E-02 0.61254E-02 0.58712E-02 0.48862E-02 0.32327E-02 0.17384E-02 0.10020E-02 0.82940E-03 0.65551E-03
 0.21914E-03 -.32599E-03 -.74348E-03 -.93663E-03 -.93295E-03 -.83533E-03 -.78012E-03 -.83533E-03 -.93295E-03 -.93663E-03
 -.74348E-03 -.32599E-03 0.21914E-03 0.65551E-03 0.82940E-03 0.10020E-02 0.17384E-02 0.32327E-02 0.48862E-02 0.58712E-02
 0.61254E-02 0.65549E-02 0.82372E-02 0.11624E-01 0.16418E-01 0.21694E-01 0.25881E-01 0.27130E-01 0.24641E-01 0.20170E-01
 0.18008E-01 0.22532E-01 0.34349E-01 0.47808E-01 0.52847E-01 0.41706E-01 0.16396E-01 -.99750E-02 0.33787E-01 0.32282E-01
 0.28279E-01 0.23420E-01 0.19953E-01 0.19076E-01 0.19921E-01 0.20785E-01 0.21055E-01 0.21198E-01 0.21230E-01 0.20359E-01
 0.18205E-01 0.15333E-01 0.12201E-01 0.86277E-02 0.48940E-02 0.24609E-02 0.24998E-02 0.41152E-02 0.50630E-02 0.41914E-02
 0.23502E-02 0.88593E-03 0.13893E-03 -.29478E-03 -.61592E-03 -.73445E-03 -.72161E-03 -.79631E-03 -.98883E-03 -.11529E-02
 -.12076E-02 -.11529E-02 -.98883E-03 -.79631E-03 -.72161E-03 -.73445E-03 -.61592E-03 -.29478E-03 0.13893E-03 0.88593E-03
 0.23502E-02 0.41914E-02 0.50630E-02 0.41152E-02 0.24998E-02 0.24609E-02 0.48940E-02 0.86277E-02 0.12201E-01 0.15333E-01
 0.18205E-01 0.20359E-01 0.21230E-01 0.21198E-01 0.21055E-01 0.20785E-01 0.19921E-01 0.19076E-01 0.19953E-01 0.23420E-01
 0.28279E-01 0.32282E-01 0.58956E-01 0.49528E-01 0.26986E-01 0.45106E-02 -.64306E-02 -.34375E-02 0.68706E-02 0.15604E-01
 0.18479E-01 0.16970E-01 0.14419E-01 0.12427E-01 0.10744E-01 0.89340E-02 0.69834E-02 0.48663E-02 0.26754E-02 0.11827E-02
 0.13587E-02 0.29962E-02 0.44356E-02 0.41509E-02 0.23128E-02 0.38794E-03 -.55726E-03 -.68801E-03 -.68002E-03 -.77707E-03
 -.80405E-03 -.71953E-03 -.72373E-03 -.88214E-03 -.98549E-03 -.88214E-03 -.72373E-03 -.71953E-03 -.80405E-03 -.77707E-03
 -.68002E-03 -.68801E-03 -.55726E-03 0.38794E-03 0.23128E-02 0.41509E-02 0.44356E-02 0.29962E-02 0.13587E-02 0.11827E-02
 0.26754E-02 0.48663E-02 0.69834E-02 0.89340E-02 0.10744E-01 0.12427E-01 0.14419E-01 0.16970E-01 0.18479E-01 0.15604E-01
 0.68706E-02 -.34375E-02 -.64306E-02 0.45106E-02 0.26986E-01 0.49528E-01 -.56384E-02 -.34061E-02 0.18821E-02 0.71457E-02
 0.10007E-01 0.10256E-01 0.92941E-02 0.84972E-02 0.82375E-02 0.81656E-02 0.78827E-02 0.71626E-02 0.59170E-02 0.43349E-02
 0.29295E-02 0.21236E-02 0.18398E-02 0.17600E-02 0.18703E-02 0.23398E-02 0.28729E-02 0.27146E-02 0.15719E-02 0.13773E-03
 -.67773E-03 -.77849E-03 -.74757E-03 -.89649E-03 -.97413E-03 -.78752E-03 -.56491E-03 -.53301E-03 -.57058E-03 -.53301E-03
 -.56491E-03 -.78752E-03 -.97413E-03 -.89649E-03 -.74757E-03 -.77849E-03 -.67773E-03 0.13773E-03 0.15719E-02 0.27146E-02
 0.28729E-02 0.23398E-02 0.18703E-02 0.17600E-02 0.18398E-02 0.21236E-02 0.29295E-02 0.43349E-02 0.59170E-02 0.71626E-02
 0.78827E-02 0.81656E-02 0.82375E-02 0.84972E-02 0.92941E-02 0.10256E-01 0.10007E-01 0.71457E-02 0.18821E-02 -.34061E-02
 -.45816E-01 -.35028E-01 -.95814E-02 0.15109E-01 0.26567E-01 0.23222E-01 0.12913E-01 0.47073E-02 0.21716E-02 0.32137E-02
 0.43719E-02 0.41649E-02 0.31262E-02 0.22691E-02 0.21324E-02 0.26124E-02 0.30807E-02 0.28762E-02 0.20123E-02 0.11948E-02
 0.92169E-03 0.87923E-03 0.52671E-03 -.65570E-04 -.42452E-03 -.48116E-03 -.60485E-03 -.89580E-03 -.10141E-02 -.80598E-03
 -.58652E-03 -.60381E-03 -.67288E-03 -.60381E-03 -.58652E-03 -.80598E-03 -.10141E-02 -.89580E-03 -.60485E-03 -.48116E-03
 -.42452E-03 -.65570E-04 0.52671E-03 0.87923E-03 0.92169E-03 0.11948E-02 0.20123E-02 0.28762E-02 0.30807E-02 0.26124E-02
 0.21324E-02 0.22691E-02 0.31262E-02 0.41649E-02 0.43719E-02 0.32137E-02 0.21716E-02 0.47073E-02 0.12913E-01 0.23222E-01
 0.26567E-01 0.15109E-01 -.95814E-02 -.35028E-01 0.11905E-01 0.11503E-01 0.10235E-01 0.81825E-02 0.59780E-02 0.46466E-02
 0.47552E-02 0.57210E-02 0.62142E-02 0.53745E-02 0.35438E-02 0.18325E-02 0.12138E-02 0.20255E-02 0.38472E-02 0.55031E-02
 0.55986E-02 0.37216E-02 0.10899E-02 -.53586E-03 -.65529E-03 -.26696E-03 -.29404E-03 -.49599E-03 -.28825E-03 0.87013E-04
 -.40104E-04 -.59706E-03 -.86865E-03 -.67998E-03 -.63097E-03 -.10095E-02 -.12782E-02 -.10095E-02 -.63097E-03 -.67998E-03
 -.86865E-03 -.59706E-03 -.40104E-04 0.87013E-04 -.28825E-03 -.49599E-03 -.29404E-03 -.26696E-03 -.65529E-03 -.53586E-03
 0.10899E-02 0.37216E-02 0.55986E-02 0.55031E-02 0.38472E-02 0.20255E-02 0.12138E-02 0.18325E-02 0.35438E-02 0.53745E-02
 0.62142E-02 0.57210E-02 0.47552E-02 0.46466E-02 0.59780E-02 0.81825E-02 0.10235E-01 0.11503E-01 0.61599E-01 0.51182E-01
 0.26111E-01 0.51071E-03 -.13252E-01 -.12068E-01 -.21721E-02 0.71283E-02 0.10298E-01 0.78380E-02 0.35761E-02 0.74842E-03
 0.41496E-03 0.21846E-02 0.50014E-02 0.71670E-02 0.69164E-02 0.40188E-02 0.44410E-03 -.14355E-02 -.12558E-02 -.58713E-03
 -.59047E-03 -.76010E-03 -.29000E-03 0.38809E-03 0.31706E-03 -.38934E-03 -.76608E-03 -.59031E-03 -.63943E-03 -.12407E-02
 -.16350E-02 -.12407E-02 -.63943E-03 -.59031E-03 -.76608E-03 -.38934E-03 0.31706E-03 0.38809E-03 -.29000E-03 -.76010E-03
 -.59047E-03 -.58713E-03 -.12558E-02 -.14355E-02 0.44410E-03 0.40188E-02 0.69164E-02 0.71670E-02 0.50014E-02 0.21846E-02
 0.41496E-03 0.74842E-03 0.35761E-02 0.78380E-02 0.10298E-01 0.71283E-02 -.21721E-02 -.12068E-01 -.13252E-01 0.51071E-03
 0.26111E-01 0.51182E-01 0.11905E-01 0.11503E-01 0.10235E-01 0.81825E-02 0.59780E-02 0.46466E-02 0.47552E-02 0.57210E-02
 0.62142E-02 0.53745E-02 0.35438E-02 0.18325E-02 0.12138E-02 0.20255E-02 0.38472E-02 0.55031E-02 0.55986E-02 0.37216E-02
 0.10899E-02 -.53586E-03 -.65529E-03 -.26696E-03 -.29404E-03 -.49599E-03 -.28825E-03 0.87013E-04 -.40104E-04 -.59706E-03
 -.86865E-03 -.67998E-03 -.63097E-03 -.10095E-02 -.12782E-02 -.10095E-02 -.63097E-03 -.67998E-03 -.86865E-03 -.59706E-03
 -.40104E-04 0.87013E-04 -.28825E-03 -.49599E-03 -.29404E-03 -.26696E-03 -.65529E-03 -.53586E-03 0.10899E-02 0.37216E-02
 0.55986E-02 0.55031E-02 0.38472E-02 0.20255E-02 0.12138E-02 0.18325E-02 0.35438E-02 0.53745E-02 0.62142E-02 0.57210E-02
 0.47552E-02 0.46466E-02 0.59780E-02 0.81825E-02 0.10235E-01 0.11503E-01 -.45816E-01 -.35028E-01 -.95814E-02 0.15109E-01
 0.26567E-01 0.23222E-01 0.12913E-01 0.47073E-02 0.21716E-02 0.32137E-02 0.43719E-02 0.41649E-02 0.31262E-02 0.22691E-02
 0.21324E-02 0.26124E-02 0.30807E-02 0.28762E-02 0.20123E-02 0.11948E-02 0.92169E-03 0.87923E-03 0.52671E-03 -.65570E-04
 -.42452E-03 -.48116E-03 -.60485E-03 -.89580E-03 -.10141E-02 -.80598E-03 -.58652E-03 -.60381E-03 -.67288E-03 -.60381E-03
 -.58652E-03 -.80598E-03 -.10141E-02 -.89580E-03 -.60485E-03 -.48116E-03 -.42452E-03 -.65570E-04 0.52671E-03 0.87923E-03
 0.92169E-03 0.11948E-02 0.20123E-02 0.28762E-02 0.30807E-02 0.26124E-02 0.21324E-02 0.22691E-02 0.31262E-02 0.41649E-02
 0.43719E-02 0.32137E-02 0.21716E-02 0.47073E-02 0.12913E-01 0.23222E-01 0.26567E-01 0.15109E-01 -.95814E-02 -.35028E-01
 -.56384E-02 -.34061E-02 0.18821E-02 0.71457E-02 0.10007E-01 0.10256E-01 0.92941E-02 0.84972E-02 0.82375E-02 0.81656E-02
 0.78827E-02 0.71626E-02 0.59170E-02 0.43349E-02 0.29295E-02 0.21236E-02 0.18398E-02 0.17600E-02 0.18703E-02 0.23398E-02
 0.28729E-02 0.27146E-02 0.15719E-02 0.13773E-03 -.67773E-03 -.77849E-03 -.74757E-03 -.89649E-03 -.97413E-03 -.78752E-03
 -.56491E-03 -.53301E-03 -.57058E-03 -.53301E-03 -.56491E-03 -.78752E-03 -.97413E-03 -.89649E-03 -.74757E-03 -.77849E-03
 -.67773E-03 0.13773E-03 0.15719E-02 0.27146E-02 0.28729E-02 0.23398E-02 0.18703E-02 0.17600E-02 0.18398E-02 0.21236E-02
 0.29295E-02 0.43349E-02 0.59170E-02 0.71626E-02 0.78827E-02 0.81656E-02 0.82375E-02 0.84972E-02 0.92941E-02 0.10256E-01
 0.10007E-01 0.71457E-02 0.18821E-02 -.34061E-02 0.58956E-01 0.49528E-01 0.26986E-01 0.45106E-02 -.64306E-02 -.34375E-02
 0.68706E-02 0.15604E-01 0.18479E-01 0.16970E-01 0.14419E-01 0.12427E-01 0.10744E-01 0.89340E-02 0.69834E-02 0.48663E-02
 0.26754E-02 0.11827E-02 0.13587E-02 0.29962E-02 0.44356E-02 0.41509E-02 0.23128E-02 0.38794E-03 -.55726E-03 -.68801E-03
 -.68002E-03 -.77707E-03 -.80405E-03 -.71953E-03 -.72373E-03 -.88214E-03 -.98549E-03 -.88214E-03 -.72373E-03 -.71953E-03
 -.80405E-03 -.77707E-03 -.68002E-03 -.68801E-03 -.55726E-03 0.38794E-03 0.23128E-02 0.41509E-02 0.44356E-02 0.29962E-02
 0.13587E-02 0.11827E-02 0.26754E-02 0.48663E-02 0.69834E-02 0.89340E-02 0.10744E-01 0.12427E-01 0.14419E-01 0.16970E-01
 0.18479E-01 0.15604E-01 0.68706E-02 -.34375E-02 -.64306E-02 0.45106E-02 0.26986E-01 0.49528E-01 0.33787E-01 0.32282E-01
 0.28279E-01 0.23420E-01 0.19953E-01 0.19076E-01 0.19921E-01 0.20785E-01 0.21055E-01 0.21198E-01 0.21230E-01 0.20359E-01
 0.18205E-01 0.15333E-01 0.12201E-01 0.86277E-02 0.48940E-02 0.24609E-02 0.24998E-02 0.41152E-02 0.50630E-02 0.41914E-02
 0.23502E-02 0.88593E-03 0.13893E-03 -.29478E-03 -.61592E-03 -.73445E-03 -.72161E-03 -.79631E-03 -.98883E-03 -.11529E-02
 -.12076E-02 -.11529E-02 -.98883E-03 -.79631E-03 -.72161E-03 -.73445E-03 -.61592E-03 -.29478E-03 0.13893E-03 0.88593E-03
 0.23502E-02 0.41914E-02 0.50630E-02 0.41152E-02 0.24998E-02 0.24609E-02 0.48940E-02 0.86277E-02 0.12201E-01 0.15333E-01
 0.18205E-01 0.20359E-01 0.21230E-01 0.21198E-01 0.21055E-01 0.20785E-01 0.19921E-01 0.19076E-01 0.19953E-01 0.23420E-01
 0.28279E-01 0.32282E-01 -.21203E-01 -.99750E-02 0.16396E-01 0.41706E-01 0.52847E-01 0.47808E-01 0.34349E-01 0.22532E-01