   6   6   0   0
  0.8533333E+02  0.8000000E-09  0.8000000E-09  0.8000000E-09  0.5000000E-15
  1.000000000000000E-004
  CAR 
 unknown system                          
      3.29502118    -20.54465121  301     -5.36657125      1.00000000
    -20.545  0.0000E+00  0.0000E+00
    -20.465  0.0000E+00  0.0000E+00
    -20.386  0.0000E+00  0.0000E+00
    -20.306  0.0000E+00  0.0000E+00
    -20.227  0.0000E+00  0.0000E+00
    -20.147  0.0000E+00  0.0000E+00
    -20.068  0.0000E+00  0.0000E+00
    -19.988  0.0000E+00  0.0000E+00
    -19.909  0.0000E+00  0.0000E+00
    -19.829  0.0000E+00  0.0000E+00
    -19.750  0.0000E+00  0.0000E+00
    -19.671  0.2096E-14  0.1665E-15
    -19.591  0.1703E-12  0.1370E-13
    -19.512  0.9979E-11  0.8067E-12
    -19.432  0.4286E-09  0.3486E-10
    -19.353  0.1349E-07  0.1107E-08
    -19.273  0.3110E-06  0.2582E-07
    -19.194  0.5260E-05  0.4438E-06
    -19.114  0.6526E-04  0.5630E-05
    -19.035  0.5941E-03  0.5284E-04
    -18.955  0.3971E-02  0.3684E-03
    -18.876  0.1949E-01  0.1918E-02
    -18.796  0.7031E-01  0.7504E-02
    -18.717  0.1863E+00  0.2231E-01
    -18.637  0.3630E+00  0.5116E-01
    -18.558  0.5199E+00  0.9247E-01
    -18.479  0.5475E+00  0.1360E+00
    -18.399  0.4239E+00  0.1697E+00
    -18.320  0.2413E+00  0.1888E+00
    -18.240  0.1010E+00  0.1969E+00
    -18.161  0.3106E-01  0.1993E+00
    -18.081  0.7018E-02  0.1999E+00
    -18.002  0.1165E-02  0.2000E+00
    -17.922  0.1420E-03  0.2000E+00
    -17.843  0.1270E-04  0.2000E+00
    -17.763  0.8334E-06  0.2000E+00
    -17.684  0.4011E-07  0.2000E+00
    -17.604  0.1415E-08  0.2000E+00
    -17.525  0.3658E-10  0.2000E+00
    -17.445  0.6930E-12  0.2000E+00
    -17.366  0.9500E-14  0.2000E+00
    -17.287  0.0000E+00  0.2000E+00
    -17.207  0.0000E+00  0.2000E+00
    -17.128  0.0000E+00  0.2000E+00
    -17.048  0.0000E+00  0.2000E+00
    -16.969  0.0000E+00  0.2000E+00
    -16.889  0.0000E+00  0.2000E+00
    -16.810  0.0000E+00  0.2000E+00
    -16.730  0.0000E+00  0.2000E+00
    -16.651  0.0000E+00  0.2000E+00
    -16.571  0.0000E+00  0.2000E+00
    -16.492  0.0000E+00  0.2000E+00
    -16.412  0.0000E+00  0.2000E+00
    -16.333  0.0000E+00  0.2000E+00
    -16.254  0.0000E+00  0.2000E+00
    -16.174  0.0000E+00  0.2000E+00
    -16.095  0.0000E+00  0.2000E+00
    -16.015  0.0000E+00  0.2000E+00
    -15.936  0.0000E+00  0.2000E+00
    -15.856  0.0000E+00  0.2000E+00
    -15.777  0.0000E+00  0.2000E+00
    -15.697  0.0000E+00  0.2000E+00
    -15.618  0.0000E+00  0.2000E+00
    -15.538  0.0000E+00  0.2000E+00
    -15.459  0.0000E+00  0.2000E+00
    -15.379  0.0000E+00  0.2000E+00
    -15.300  0.0000E+00  0.2000E+00
    -15.220  0.0000E+00  0.2000E+00
    -15.141  0.0000E+00  0.2000E+00
    -15.062  0.4191E-15  0.2000E+00
    -14.982  0.3451E-13  0.2000E+00
    -14.903  0.2270E-11  0.2000E+00
    -14.823  0.1095E-09  0.2000E+00
    -14.744  0.3869E-08  0.2000E+00
    -14.664  0.1002E-06  0.2000E+00
    -14.585  0.1902E-05  0.2000E+00
    -14.505  0.2648E-04  0.2000E+00
    -14.426  0.2705E-03  0.2000E+00
    -14.346  0.2029E-02  0.2002E+00
    -14.267  0.1117E-01  0.2011E+00
    -14.187  0.4519E-01  0.2047E+00
    -14.108  0.1343E+00  0.2153E+00
    -14.028  0.2935E+00  0.2387E+00
    -13.949  0.4714E+00  0.2761E+00
    -13.870  0.5567E+00  0.3204E+00
    -13.790  0.4834E+00  0.3588E+00
    -13.711  0.3086E+00  0.3833E+00
    -13.631  0.1448E+00  0.3948E+00
    -13.552  0.4996E-01  0.3988E+00
    -13.472  0.1266E-01  0.3998E+00
    -13.393  0.2358E-02  0.4000E+00
    -13.313  0.3224E-03  0.4000E+00
    -13.234  0.3237E-04  0.4000E+00
    -13.154  0.2384E-05  0.4000E+00
    -13.075  0.1288E-06  0.4000E+00
    -12.995  0.5101E-08  0.4000E+00
    -12.916  0.1481E-09  0.4000E+00
    -12.836  0.3149E-11  0.4000E+00
    -12.757  0.4918E-13  0.4000E+00
    -12.678  0.5588E-15  0.4000E+00
    -12.598  0.0000E+00  0.4000E+00
    -12.519  0.0000E+00  0.4000E+00
    -12.439  0.0000E+00  0.4000E+00
    -12.360  0.0000E+00  0.4000E+00
    -12.280  0.0000E+00  0.4000E+00
    -12.201  0.0000E+00  0.4000E+00
    -12.121  0.1956E-14  0.4000E+00
    -12.042  0.1552E-12  0.4000E+00
    -11.962  0.9163E-11  0.4000E+00
    -11.883  0.3962E-09  0.4000E+00
    -11.803  0.1255E-07  0.4000E+00
    -11.724  0.2914E-06  0.4000E+00
    -11.645  0.4962E-05  0.4000E+00
    -11.565  0.6198E-04  0.4000E+00
    -11.486  0.5681E-03  0.4001E+00
    -11.406  0.3823E-02  0.4004E+00
    -11.327  0.1889E-01  0.4019E+00
    -11.247  0.6859E-01  0.4073E+00
    -11.168  0.1830E+00  0.4219E+00
    -11.088  0.3589E+00  0.4504E+00
    -11.009  0.5176E+00  0.4915E+00
    -10.929  0.5487E+00  0.5351E+00
    -10.850  0.4277E+00  0.5691E+00
    -10.770  0.2451E+00  0.5886E+00
    -10.691  0.1033E+00  0.5968E+00
    -10.611  0.3197E-01  0.5993E+00
    -10.532  0.7273E-02  0.5999E+00
    -10.453  0.1215E-02  0.6000E+00
    -10.373  0.1508E-03  0.6000E+00
    -10.294  0.3742E-04  0.6000E+00
    -10.214  0.2490E-03  0.6000E+00
    -10.135  0.1884E-02  0.6002E+00
    -10.055  0.1050E-01  0.6010E+00
     -9.976  0.4301E-01  0.6044E+00
     -9.896  0.1294E+00  0.6147E+00
     -9.817  0.2862E+00  0.6375E+00
     -9.737  0.4654E+00  0.6744E+00
     -9.658  0.5563E+00  0.7186E+00
     -9.578  0.4890E+00  0.7575E+00
     -9.499  0.3160E+00  0.7826E+00
     -9.419  0.1501E+00  0.7945E+00
     -9.340  0.5242E-01  0.7987E+00
     -9.261  0.1345E-01  0.7998E+00
     -9.181  0.2536E-02  0.8000E+00
     -9.102  0.3510E-03  0.8000E+00
     -9.022  0.3567E-04  0.8000E+00
     -8.943  0.2660E-05  0.8000E+00
     -8.863  0.1586E-06  0.8000E+00
     -8.784  0.3087E-06  0.8000E+00
     -8.704  0.5136E-05  0.8000E+00
     -8.625  0.6390E-04  0.8000E+00
     -8.545  0.5833E-03  0.8001E+00
     -8.466  0.3910E-02  0.8004E+00
     -8.386  0.1925E-01  0.8019E+00
     -8.307  0.6960E-01  0.8074E+00
     -8.227  0.1850E+00  0.8221E+00
     -8.148  0.3613E+00  0.8508E+00
     -8.069  0.5190E+00  0.8921E+00
     -7.989  0.5480E+00  0.9356E+00
     -7.910  0.4255E+00  0.9694E+00
     -7.830  0.2429E+00  0.9887E+00
     -7.751  0.1019E+00  0.9968E+00
     -7.671  0.3143E-01  0.9993E+00
     -7.592  0.7122E-02  0.9999E+00
     -7.512  0.1185E-02  0.1000E+01
     -7.433  0.1449E-03  0.1000E+01
     -7.353  0.1299E-04  0.1000E+01
     -7.274  0.8551E-06  0.1000E+01
     -7.194  0.4437E-07  0.1000E+01
     -7.115  0.8337E-07  0.1000E+01
     -7.036  0.1587E-05  0.1000E+01
     -6.956  0.2254E-04  0.1000E+01
     -6.877  0.2349E-03  0.1000E+01
     -6.797  0.1797E-02  0.1000E+01
     -6.718  0.1010E-01  0.1001E+01
     -6.638  0.4167E-01  0.1004E+01
     -6.559  0.1264E+00  0.1014E+01
     -6.479  0.2816E+00  0.1037E+01
     -6.400  0.4615E+00  0.1073E+01
     -6.320  0.5559E+00  0.1118E+01
     -6.241  0.4924E+00  0.1157E+01
     -6.161  0.3207E+00  0.1182E+01
     -6.082  0.1535E+00  0.1194E+01
     -6.002  0.5402E-01  0.1199E+01
     -5.923  0.1397E-01  0.1200E+01
     -5.844  0.2654E-02  0.1200E+01
     -5.764  0.3702E-03  0.1200E+01
     -5.685  0.3791E-04  0.1200E+01
     -5.605  0.2849E-05  0.1200E+01
     -5.526  0.1570E-06  0.1200E+01
     -5.446  0.6347E-08  0.1200E+01
     -5.367  0.1880E-09  0.1200E+01
     -5.287  0.4080E-11  0.1200E+01
     -5.208  0.6511E-13  0.1200E+01
     -5.128  0.5588E-15  0.1200E+01
     -5.049  0.0000E+00  0.1200E+01
     -4.969  0.0000E+00  0.1200E+01
     -4.890  0.0000E+00  0.1200E+01
     -4.810  0.0000E+00  0.1200E+01
     -4.731  0.0000E+00  0.1200E+01
     -4.652  0.0000E+00  0.1200E+01
     -4.572  0.0000E+00  0.1200E+01
     -4.493  0.0000E+00  0.1200E+01
     -4.413  0.0000E+00  0.1200E+01
     -4.334  0.0000E+00  0.1200E+01
     -4.254  0.0000E+00  0.1200E+01
     -4.175  0.0000E+00  0.1200E+01
     -4.095  0.0000E+00  0.1200E+01
     -4.016  0.0000E+00  0.1200E+01
     -3.936  0.0000E+00  0.1200E+01
     -3.857  0.0000E+00  0.1200E+01
     -3.777  0.0000E+00  0.1200E+01
     -3.698  0.0000E+00  0.1200E+01
     -3.618  0.0000E+00  0.1200E+01
     -3.539  0.0000E+00  0.1200E+01
     -3.460  0.0000E+00  0.1200E+01
     -3.380  0.0000E+00  0.1200E+01
     -3.301  0.0000E+00  0.1200E+01
     -3.221  0.0000E+00  0.1200E+01
     -3.142  0.0000E+00  0.1200E+01
     -3.062  0.0000E+00  0.1200E+01
     -2.983  0.0000E+00  0.1200E+01
     -2.903  0.0000E+00  0.1200E+01
     -2.824  0.0000E+00  0.1200E+01
     -2.744  0.0000E+00  0.1200E+01
     -2.665  0.0000E+00  0.1200E+01
     -2.585  0.0000E+00  0.1200E+01
     -2.506  0.0000E+00  0.1200E+01
     -2.427  0.0000E+00  0.1200E+01
     -2.347  0.0000E+00  0.1200E+01
     -2.268  0.0000E+00  0.1200E+01
     -2.188  0.0000E+00  0.1200E+01
     -2.109  0.0000E+00  0.1200E+01
     -2.029  0.0000E+00  0.1200E+01
     -1.950  0.0000E+00  0.1200E+01
     -1.870  0.0000E+00  0.1200E+01
     -1.791  0.2794E-14  0.1200E+01
     -1.711  0.2133E-12  0.1200E+01
     -1.632  0.1231E-10  0.1200E+01
     -1.552  0.5202E-09  0.1200E+01
     -1.473  0.1611E-07  0.1200E+01
     -1.393  0.3661E-06  0.1200E+01
     -1.314  0.6105E-05  0.1200E+01
     -1.235  0.7484E-04  0.1200E+01
     -1.155  0.6753E-03  0.1200E+01
     -1.076  0.4497E-02  0.1200E+01
     -0.996  0.2219E-01  0.1202E+01
     -0.917  0.8157E-01  0.1209E+01
     -0.837  0.2253E+00  0.1227E+01
     -0.758  0.4730E+00  0.1264E+01
     -0.678  0.7653E+00  0.1325E+01
     -0.599  0.9667E+00  0.1402E+01
     -0.519  0.9616E+00  0.1478E+01
     -0.440  0.7530E+00  0.1538E+01
     -0.360  0.4602E+00  0.1575E+01
     -0.281  0.2166E+00  0.1592E+01
     -0.201  0.7742E-01  0.1598E+01
     -0.122  0.2079E-01  0.1600E+01
     -0.043  0.4157E-02  0.1600E+01
      0.037  0.6158E-03  0.1600E+01
      0.116  0.6732E-04  0.1600E+01
      0.196  0.5417E-05  0.1600E+01
      0.275  0.3203E-06  0.1600E+01
      0.355  0.1411E-07  0.1600E+01
      0.434  0.7614E-08  0.1600E+01
      0.514  0.1838E-06  0.1600E+01
      0.593  0.3464E-05  0.1600E+01
      0.673  0.4803E-04  0.1600E+01
      0.752  0.4900E-03  0.1600E+01
      0.832  0.3682E-02  0.1600E+01
      0.911  0.2039E-01  0.1602E+01
      0.991  0.8323E-01  0.1609E+01
      1.070  0.2506E+00  0.1628E+01
      1.149  0.5566E+00  0.1673E+01
      1.229  0.9123E+00  0.1745E+01
      1.308  0.1104E+01  0.1833E+01
      1.388  0.9859E+00  0.1911E+01
      1.467  0.6499E+00  0.1963E+01
      1.547  0.3162E+00  0.1988E+01
      1.626  0.1135E+00  0.1997E+01
      1.706  0.3006E-01  0.1999E+01
      1.785  0.5869E-02  0.2000E+01
      1.865  0.8444E-03  0.2000E+01
      1.944  0.8949E-04  0.2000E+01
      2.024  0.6981E-05  0.2000E+01
      2.103  0.4007E-06  0.2000E+01
      2.183  0.1691E-07  0.2000E+01
      2.262  0.5244E-09  0.2000E+01
      2.341  0.1194E-10  0.2000E+01
      2.421  0.1998E-12  0.2000E+01
      2.500  0.2515E-14  0.2000E+01
      2.580  0.0000E+00  0.2000E+01
      2.659  0.0000E+00  0.2000E+01
      2.739  0.0000E+00  0.2000E+01
      2.818  0.0000E+00  0.2000E+01
      2.898  0.0000E+00  0.2000E+01
      2.977  0.0000E+00  0.2000E+01
      3.057  0.0000E+00  0.2000E+01
      3.136  0.0000E+00  0.2000E+01
      3.216  0.0000E+00  0.2000E+01
      3.295  0.0000E+00  0.2000E+01
