    6    6   10    1
  0.8533333E+02  0.8000000E-09  0.8000000E-09  0.8000000E-09  0.5000000E-15
  1.000000000000000E-004
  CAR 
 unknown system                          
   12    1   10
 
  0.0000000E+00  0.0000000E+00  0.0000000E+00  0.1000000E+01
   1      -18.544651
   2      -13.906041
   3      -10.993691
   4       -9.691211
   5       -8.054486
   6       -6.351666
   7       -0.669149
   8       -0.532000
   9        1.262572
  10        1.295021
