<?xml version="1.0" encoding="ISO-8859-1"?>
<modeling>
 <generator>
  <i name="program" type="string">vasp </i>
  <i name="version" type="string">5.2.12  </i>
  <i name="subversion" type="string">11Nov11 complex                                                      parallel </i>
  <i name="platform" type="string">LinuxIFC </i>
  <i name="date" type="string">2012 11 03 </i>
  <i name="time" type="string">01:30:19 </i>
 </generator>
 <incar>
  <i type="string" name="PREC">normal</i>
  <i type="int" name="IBRION">     2</i>
  <i type="int" name="NSW">    10</i>
  <i name="ENCUT">    250.00000000</i>
  <i type="int" name="ISMEAR">     0</i>
 </incar>
 <kpoints>
  <generation param="Monkhorst-Pack">
   <v type="int" name="divisions">       1        1        1 </v>
   <v name="usershift">      0.00000000       0.00000000       0.00000000 </v>
   <v name="genvec1">      1.00000000       0.00000000       0.00000000 </v>
   <v name="genvec2">      0.00000000       1.00000000       0.00000000 </v>
   <v name="genvec3">      0.00000000       0.00000000       1.00000000 </v>
   <v name="shift">      0.00000000       0.00000000       0.00000000 </v>
  </generation>
  <varray name="kpointlist" >
   <v>       0.00000000       0.00000000       0.00000000 </v>
  </varray>
  <varray name="weights" >
   <v>       1.00000000 </v>
  </varray>
 </kpoints>
 <parameters>
  <separator name="general" >
   <i type="string" name="SYSTEM">unknown system</i>
   <i type="logical" name="LCOMPAT"> F  </i>
  </separator>
  <separator name="electronic" >
   <i type="string" name="PREC">normal</i>
   <i name="ENMAX">    250.00000000</i>
   <i name="ENAUG">    644.87300000</i>
   <i name="EDIFF">      0.00010000</i>
   <i type="int" name="IALGO">    38</i>
   <i type="int" name="IWAVPR">    11</i>
   <i type="int" name="NBANDS">    10</i>
   <i name="NELECT">     12.00000000</i>
   <i type="int" name="TURBO">     0</i>
   <i type="int" name="IRESTART">     0</i>
   <i type="int" name="NREBOOT">     0</i>
   <i type="int" name="NMIN">     0</i>
   <i name="EREF">      0.00000000</i>
   <separator name="electronic smearing" >
    <i type="int" name="ISMEAR">     0</i>
    <i name="SIGMA">      0.20000000</i>
    <i name="KSPACING">      0.50000000</i>
    <i type="logical" name="KGAMMA"> T  </i>
   </separator>
   <separator name="electronic projectors" >
    <i type="logical" name="LREAL"> F  </i>
    <v name="ROPT">      0.00000000      0.00000000</v>
    <i type="int" name="LMAXPAW">  -100</i>
    <i type="int" name="LMAXMIX">     2</i>
    <i type="logical" name="NLSPLINE"> F  </i>
   </separator>
   <separator name="electronic startup" >
    <i type="int" name="ISTART">     0</i>
    <i type="int" name="ICHARG">     2</i>
    <i type="int" name="INIWAV">     1</i>
   </separator>
   <separator name="electronic spin" >
    <i type="int" name="ISPIN">     1</i>
    <i type="logical" name="LNONCOLLINEAR"> F  </i>
    <v name="MAGMOM">      1.00000000      1.00000000      1.00000000      1.00000000      1.00000000      1.00000000</v>
    <i name="NUPDOWN">     -1.00000000</i>
    <i type="logical" name="LSORBIT"> F  </i>
    <v name="SAXIS">      0.00000000      0.00000000      1.00000000</v>
    <i type="logical" name="LSPIRAL"> F  </i>
    <v name="QSPIRAL">      0.00000000      0.00000000      0.00000000</v>
    <i type="logical" name="LZEROZ"> F  </i>
   </separator>
   <separator name="electronic exchange-correlation" >
    <i type="logical" name="LASPH"> F  </i>
    <i type="logical" name="LMETAGGA"> F  </i>
   </separator>
   <separator name="electronic convergence" >
    <i type="int" name="NELM">    60</i>
    <i type="int" name="NELMDL">    -5</i>
    <i type="int" name="NELMIN">     2</i>
    <i name="ENINI">    250.00000000</i>
    <separator name="electronic convergence detail" >
     <i type="logical" name="LDIAG"> T  </i>
     <i type="logical" name="LSUBROT"> T  </i>
     <i name="WEIMIN">      0.00100000</i>
     <i name="EBREAK">      0.00000250</i>
     <i name="DEPER">      0.30000000</i>
     <i type="int" name="NRMM">     4</i>
     <i name="TIME">      0.40000000</i>
    </separator>
   </separator>
   <separator name="electronic mixer" >
    <i name="AMIX">      0.40000000</i>
    <i name="BMIX">      1.00000000</i>
    <i name="AMIN">      0.10000000</i>
    <i name="AMIX_MAG">      1.60000000</i>
    <i name="BMIX_MAG">      1.00000000</i>
    <separator name="electronic mixer details" >
     <i type="int" name="IMIX">     4</i>
     <i type="int" name="MAXMIX">   -45</i>
     <i name="WC">    100.00000000</i>
     <i type="int" name="INIMIX">     1</i>
     <i type="int" name="MIXPRE">     1</i>
     <i type="int" name="MREMOVE">     5</i>
    </separator>
   </separator>
   <separator name="electronic dipolcorrection" >
    <i type="logical" name="LDIPOL"> F  </i>
    <i type="logical" name="LMONO"> F  </i>
    <i type="int" name="IDIPOL">     0</i>
    <i name="EPSILON">      1.00000000</i>
    <v name="DIPOL">   -100.00000000   -100.00000000   -100.00000000</v>
    <i name="EFIELD">      0.00000000</i>
   </separator>
  </separator>
  <separator name="grids" >
   <i type="int" name="NGX">    32</i>
   <i type="int" name="NGY">    32</i>
   <i type="int" name="NGZ">    32</i>
   <i type="int" name="NGXF">    64</i>
   <i type="int" name="NGYF">    64</i>
   <i type="int" name="NGZF">    64</i>
   <i type="logical" name="ADDGRID"> F  </i>
  </separator>
  <separator name="ionic" >
   <i type="int" name="NSW">    10</i>
   <i type="int" name="IBRION">     2</i>
   <i type="int" name="ISIF">     2</i>
   <i name="PSTRESS">      0.00000000</i>
   <i name="EDIFFG">      0.00100000</i>
   <i type="int" name="NFREE">     1</i>
   <i name="POTIM">      0.50000000</i>
   <i name="SMASS">     -3.00000000</i>
   <i name="SCALEE">      1.00000000</i>
  </separator>
  <separator name="ionic md" >
   <i name="TEBEG">      0.00010000</i>
   <i name="TEEND">      0.00010000</i>
   <i type="int" name="NBLOCK">     1</i>
   <i type="int" name="KBLOCK">    10</i>
   <i type="int" name="NPACO">   256</i>
   <i name="APACO">     16.00000000</i>
  </separator>
  <separator name="symmetry" >
   <i type="int" name="ISYM">     2</i>
   <i name="SYMPREC">      0.00001000</i>
  </separator>
  <separator name="dos" >
   <i type="logical" name="LORBIT"> F  </i>
   <v name="RWIGS">     -1.00000000     -1.00000000</v>
   <i type="int" name="NEDOS">   301</i>
   <i name="EMIN">     10.00000000</i>
   <i name="EMAX">    -10.00000000</i>
   <i name="EFERMI">      0.00000000</i>
  </separator>
  <separator name="writing" >
   <i type="int" name="NWRITE">     2</i>
   <i type="logical" name="LWAVE"> T  </i>
   <i type="logical" name="LCHARG"> T  </i>
   <i type="logical" name="LPARD"> F  </i>
   <i type="logical" name="LVTOT"> F  </i>
   <i type="logical" name="LVHAR"> F  </i>
   <i type="logical" name="LELF"> F  </i>
   <i type="logical" name="LOPTICS"> F  </i>
   <v name="STM">      0.00000000      0.00000000      0.00000000      0.00000000      0.00000000      0.00000000      0.00000000</v>
  </separator>
  <separator name="performance" >
   <i type="int" name="NPAR">     1</i>
   <i type="int" name="NSIM">     4</i>
   <i type="int" name="NBLK">    -1</i>
   <i type="logical" name="LPLANE"> T  </i>
   <i type="logical" name="LSCALAPACK"> F  </i>
   <i type="logical" name="LSCAAWARE"> F  </i>
   <i type="logical" name="LSCALU"> F  </i>
   <i type="logical" name="LASYNC"> F  </i>
   <i type="logical" name="LORBITALREAL"> F  </i>
  </separator>
  <separator name="miscellaneous" >
   <i type="int" name="IDIOT">     3</i>
   <i type="logical" name="LMUSIC"> F  </i>
   <v name="POMASS">      1.00000000     12.01100000</v>
   <v name="DARWINR">      0.00000000      0.00000000</v>
   <v name="DARWINV">      1.00000000      1.00000000</v>
   <i type="logical" name="LCORR"> T  </i>
  </separator>
  <i type="logical" name="GGA_COMPAT"> T  </i>
  <i type="logical" name="LBERRY"> F  </i>
  <i type="int" name="ICORELEVEL">     0</i>
  <i type="logical" name="LDAU"> F  </i>
  <i type="int" name="I_CONSTRAINED_M">     0</i>
  <separator name="electronic exchange-correlation" >
   <i type="string" name="GGA">--</i>
   <i type="int" name="VOSKOWN">     0</i>
   <i type="logical" name="LHFCALC"> F  </i>
   <i type="string" name="PRECFOCK"></i>
   <i type="logical" name="LHFONE"> F  </i>
   <i type="logical" name="LRHFCALC"> F  </i>
   <i type="logical" name="LTHOMAS"> F  </i>
   <i type="logical" name="LMODELHF"> F  </i>
   <i name="ENCUT4O">     -1.00000000</i>
   <i type="int" name="EXXOEP">     0</i>
   <i type="int" name="FOURORBIT">     0</i>
   <i name="AEXX">      0.00000000</i>
   <i name="HFALPHA">      0.00000000</i>
   <i name="ALDAX">      1.00000000</i>
   <i name="AGGAX">      1.00000000</i>
   <i name="ALDAC">      1.00000000</i>
   <i name="AGGAC">      1.00000000</i>
   <i type="int" name="NKREDX">     1</i>
   <i type="int" name="NKREDY">     1</i>
   <i type="int" name="NKREDZ">     1</i>
   <i type="logical" name="SHIFTRED"> F  </i>
   <i type="logical" name="ODDONLY"> F  </i>
   <i type="logical" name="EVENONLY"> F  </i>
   <i type="int" name="LMAXFOCK">     0</i>
   <i type="int" name="NMAXFOCKAE">     0</i>
   <i type="logical" name="LFOCKAEDFT"> F  </i>
   <i name="HFSCREEN">      0.00000000</i>
   <i name="HFSCREENC">      0.00000000</i>
  </separator>
  <separator name="vdW DFT" >
   <i type="logical" name="LUSE_VDW"> F  </i>
   <i name="Zab_VDW">     -0.84910000</i>
   <i name="PARAM1">      0.12340000</i>
   <i name="PARAM2">      1.00000000</i>
   <i name="PARAM3">      0.00000000</i>
  </separator>
  <separator name="model GW" >
   <i type="int" name="MODEL_GW">     0</i>
   <i name="MODEL_EPS0">     51.20000000</i>
   <i name="MODEL_ALPHA">      1.00000000</i>
  </separator>
  <separator name="linear response parameters" >
   <i type="logical" name="LEPSILON"> F  </i>
   <i type="logical" name="LRPA"> F  </i>
   <i type="logical" name="LNABLA"> F  </i>
   <i type="logical" name="LVEL"> F  </i>
   <i type="int" name="KINTER">     0</i>
   <i name="CSHIFT">      0.10000000</i>
   <i name="OMEGAMAX">     -1.00000000</i>
  </separator>
  <separator name="orbital magnetization" >
   <i type="logical" name="NUCIND"> F  </i>
   <v name="MAGPOS">      0.00000000      0.00000000      0.00000000</v>
   <i type="logical" name="LNICSALL"> T  </i>
   <i type="logical" name="ORBITALMAG"> F  </i>
   <i type="logical" name="LMAGBLOCH"> F  </i>
   <i type="logical" name="LCHIMAG"> F  </i>
   <i type="logical" name="LGAUGE"> T  </i>
   <i type="int" name="MAGATOM">     0</i>
   <v name="MAGDIPOL">      0.00000000      0.00000000      0.00000000</v>
   <v name="AVECCONST">      0.00000000      0.00000000      0.00000000</v>
  </separator>
  <separator name="response functions" >
   <i type="logical" name="LADDER"> F  </i>
   <i type="logical" name="LHARTREE"> T  </i>
   <i type="int" name="IBSE">     0</i>
   <i type="logical" name="LTCTE"> F  </i>
   <i type="logical" name="LTETE"> F  </i>
   <i type="logical" name="LFXCEPS"> F  </i>
   <i type="logical" name="L2ORDER"> F  </i>
   <i type="logical" name="LUSEW"> F  </i>
   <i name="ENCUTGW">     -2.00000000</i>
   <i name="ENCUTGWSOFT">     -2.00000000</i>
   <i name="ENCUTLF">     -1.00000000</i>
   <i type="int" name="LMAXMP2">    -1</i>
   <i name="SCISSOR">      0.00000000</i>
   <i type="int" name="NOMEGA">     0</i>
   <i type="int" name="NOMEGAR">     0</i>
   <i type="int" name="NBANDSGW">    -1</i>
   <i type="int" name="NBANDSO">    -1</i>
   <i type="int" name="NBANDSV">    -1</i>
   <i name="OPTEMAX">      0.00000000</i>
   <i type="int" name="NELM">     1</i>
   <i type="int" name="DIM">     3</i>
   <i type="int" name="ANTIRES">     0</i>
   <i name="OMEGAMAX">    -30.00000000</i>
   <i name="OMEGATL">   -200.00000000</i>
   <i type="int" name="OMEGAGRID">     0</i>
   <i name="CSHIFT">     -0.10000000</i>
   <i type="logical" name="SELFENERGY"> F  </i>
   <i type="logical" name="LSPECTRAL"> F  </i>
   <i type="logical" name="ODDONLYGW"> F  </i>
   <i type="logical" name="EVENONLYGW"> F  </i>
   <i type="int" name="NKREDLFX">     1</i>
   <i type="int" name="NKREDLFY">     1</i>
   <i type="int" name="NKREDLFZ">     1</i>
   <i type="int" name="MAXMEM">  1800</i>
   <i type="int" name="TELESCOPE">     0</i>
  </separator>
 </parameters>
 <atominfo>
  <atoms>       6 </atoms>
  <types>       2 </types>
  <array name="atoms" >
   <dimension dim="1">ion</dimension>
   <field type="string">element</field>
   <field type="int">atomtype</field>
   <set>
    <rc><c>H </c><c>   1</c></rc>
    <rc><c>H </c><c>   1</c></rc>
    <rc><c>H </c><c>   1</c></rc>
    <rc><c>H </c><c>   1</c></rc>
    <rc><c>C </c><c>   2</c></rc>
    <rc><c>C </c><c>   2</c></rc>
   </set>
  </array>
  <array name="atomtypes" >
   <dimension dim="1">type</dimension>
   <field type="int">atomspertype</field>
   <field type="string">element</field>
   <field>mass</field>
   <field>valence</field>
   <field type="string">pseudopotential</field>
   <set>
    <rc><c>   4</c><c>H </c><c>      1.00000000</c><c>      1.00000000</c><c> PAW_PBE H 15Jun2001                    </c></rc>
    <rc><c>   2</c><c>C </c><c>     12.01100000</c><c>      4.00000000</c><c> PAW_PBE C 08Apr2002                    </c></rc>
   </set>
  </array>
 </atominfo>
 <structure name="initialpos" >
  <crystal>
   <varray name="basis" >
    <v>       8.00000000       0.00000000       0.00000000 </v>
    <v>       0.00000000       8.00000000       0.00000000 </v>
    <v>       0.00000000       0.00000000       8.00000000 </v>
   </varray>
   <i name="volume">    512.00000000 </i>
   <varray name="rec_basis" >
    <v>       0.12500000       0.00000000       0.00000000 </v>
    <v>       0.00000000       0.12500000       0.00000000 </v>
    <v>       0.00000000       0.00000000       0.12500000 </v>
   </varray>
  </crystal>
  <varray name="positions" >
   <v>       0.00000000       0.11535400       0.15471187 </v>
   <v>       0.00000000       0.88464600       0.15471187 </v>
   <v>       0.00000000       0.11535400       0.84528813 </v>
   <v>       0.00000000       0.88464600       0.84528813 </v>
   <v>       0.00000000       0.00000000       0.08343500 </v>
   <v>       0.00000000       0.00000000       0.91656500 </v>
  </varray>
 </structure>
 <calculation>
  <scstep>
   <time name="dav">    0.28    0.28</time>
   <time name="total">    0.69    0.70</time>
   <energy>
    <i name="alphaZ">      1.18323955 </i>
    <i name="ewald">    172.18683896 </i>
    <i name="hartreedc">   -393.99545989 </i>
    <i name="XCdc">     35.70889259 </i>
    <i name="pawpsdc">     78.78818903 </i>
    <i name="pawaedc">    -81.12517927 </i>
    <i name="eentropy">     -0.00000002 </i>
    <i name="bandstr">   -150.27051600 </i>
    <i name="atom">    342.54334732 </i>
    <i name="e_fr_energy">      5.01935228 </i>
    <i name="e_wo_entrp">      5.01935230 </i>
    <i name="e_0_energy">      5.01935229 </i>
   </energy>
  </scstep>
  <scstep>
   <time name="dav">    0.22    0.22</time>
   <time name="total">    0.22    0.22</time>
   <energy>
    <i name="e_fr_energy">    -30.64026847 </i>
    <i name="e_wo_entrp">    -30.64026847 </i>
    <i name="e_0_energy">    -30.64026847 </i>
   </energy>
  </scstep>
  <scstep>
   <time name="dav">    0.37    0.37</time>
   <time name="total">    0.37    0.38</time>
   <energy>
    <i name="e_fr_energy">    -35.25224928 </i>
    <i name="e_wo_entrp">    -35.25224928 </i>
    <i name="e_0_energy">    -35.25224928 </i>
   </energy>
  </scstep>
  <scstep>
   <time name="dav">    0.23    0.23</time>
   <time name="total">    0.23    0.24</time>
   <energy>
    <i name="e_fr_energy">    -35.26835500 </i>
    <i name="e_wo_entrp">    -35.26835500 </i>
    <i name="e_0_energy">    -35.26835500 </i>
   </energy>
  </scstep>
  <scstep>
   <time name="dav">    0.30    0.31</time>
   <time name="total">    0.37    0.38</time>
   <energy>
    <i name="e_fr_energy">    -35.26849809 </i>
    <i name="e_wo_entrp">    -35.26849809 </i>
    <i name="e_0_energy">    -35.26849809 </i>
   </energy>
  </scstep>
  <scstep>
   <time name="dav">    0.23    0.23</time>
   <time name="total">    0.70    0.71</time>
   <energy>
    <i name="e_fr_energy">    -32.45254448 </i>
    <i name="e_wo_entrp">    -32.45254448 </i>
    <i name="e_0_energy">    -32.45254448 </i>
   </energy>
  </scstep>
  <scstep>
   <time name="dav">    0.29    0.29</time>
   <time name="total">    0.76    0.78</time>
   <energy>
    <i name="e_fr_energy">    -31.73429737 </i>
    <i name="e_wo_entrp">    -31.73429737 </i>
    <i name="e_0_energy">    -31.73429737 </i>
   </energy>
  </scstep>
  <scstep>
   <time name="dav">    0.22    0.22</time>
   <time name="total">    0.68    0.70</time>
   <energy>
    <i name="e_fr_energy">    -31.64015470 </i>
    <i name="e_wo_entrp">    -31.64015470 </i>
    <i name="e_0_energy">    -31.64015470 </i>
   </energy>
  </scstep>
  <scstep>
   <time name="dav">    0.24    0.25</time>
   <time name="total">    0.71    0.72</time>
   <energy>
    <i name="e_fr_energy">    -31.63388511 </i>
    <i name="e_wo_entrp">    -31.63388511 </i>
    <i name="e_0_energy">    -31.63388511 </i>
   </energy>
  </scstep>
  <scstep>
   <time name="dav">    0.23    0.23</time>
   <time name="total">    0.69    0.71</time>
   <energy>
    <i name="e_fr_energy">    -31.63374741 </i>
    <i name="e_wo_entrp">    -31.63374741 </i>
    <i name="e_0_energy">    -31.63374741 </i>
   </energy>
  </scstep>
  <scstep>
   <time name="dav">    0.23    0.23</time>
   <time name="total">    0.69    0.71</time>
   <energy>
    <i name="e_fr_energy">    -31.63579509 </i>
    <i name="e_wo_entrp">    -31.63579509 </i>
    <i name="e_0_energy">    -31.63579509 </i>
   </energy>
  </scstep>
  <scstep>
   <time name="dav">    0.22    0.22</time>
   <time name="total">    0.71    0.73</time>
   <energy>
    <i name="e_fr_energy">    -31.64008702 </i>
    <i name="e_wo_entrp">    -31.64008702 </i>
    <i name="e_0_energy">    -31.64008702 </i>
   </energy>
  </scstep>
  <scstep>
   <time name="dav">    0.24    0.24</time>
   <time name="total">    0.72    0.73</time>
   <energy>
    <i name="e_fr_energy">    -31.64234907 </i>
    <i name="e_wo_entrp">    -31.64234907 </i>
    <i name="e_0_energy">    -31.64234907 </i>
   </energy>
  </scstep>
  <scstep>
   <time name="dav">    0.26    0.26</time>
   <time name="total">    0.81    0.82</time>
   <energy>
    <i name="e_fr_energy">    -31.64333914 </i>
    <i name="e_wo_entrp">    -31.64333914 </i>
    <i name="e_0_energy">    -31.64333914 </i>
   </energy>
  </scstep>
  <scstep>
   <time name="dav">    0.27    0.28</time>
   <time name="total">    0.74    0.75</time>
   <energy>
    <i name="alphaZ">      1.18323955 </i>
    <i name="ewald">    172.18683896 </i>
    <i name="hartreedc">   -448.40502078 </i>
    <i name="XCdc">     39.04652931 </i>
    <i name="pawpsdc">    156.60934195 </i>
    <i name="pawaedc">   -159.00829683 </i>
    <i name="eentropy">      0.00000000 </i>
    <i name="bandstr">   -135.79940844 </i>
    <i name="atom">    342.54334732 </i>
    <i name="e_fr_energy">    -31.64342895 </i>
    <i name="e_wo_entrp">    -31.64342895 </i>
    <i name="e_0_energy">    -31.64342895 </i>
   </energy>
  </scstep>
  <parameters_embedded>
   <separator name="dft+d2" >
    <i type="logical" name="LVDW"> F  </i>
   </separator>
  </parameters_embedded>
  <structure>
   <crystal>
    <varray name="basis" >
     <v>       8.00000000       0.00000000       0.00000000 </v>
     <v>       0.00000000       8.00000000       0.00000000 </v>
     <v>       0.00000000       0.00000000       8.00000000 </v>
    </varray>
    <i name="volume">    512.00000000 </i>
    <varray name="rec_basis" >
     <v>       0.12500000       0.00000000       0.00000000 </v>
     <v>       0.00000000       0.12500000       0.00000000 </v>
     <v>       0.00000000       0.00000000       0.12500000 </v>
    </varray>
   </crystal>
   <varray name="positions" >
    <v>       0.00000000       0.11535400       0.15471187 </v>
    <v>       0.00000000       0.88464600       0.15471187 </v>
    <v>       0.00000000       0.11535400       0.84528813 </v>
    <v>       0.00000000       0.88464600       0.84528813 </v>
    <v>       0.00000000       0.00000000       0.08343500 </v>
    <v>       0.00000000       0.00000000       0.91656500 </v>
   </varray>
  </structure>
  <varray name="forces" >
   <v>       0.00000000       0.38061331       0.23206446 </v>
   <v>       0.00000000      -0.38061331       0.23206446 </v>
   <v>       0.00000000       0.38061331      -0.23206446 </v>
   <v>       0.00000000      -0.38061331      -0.23206446 </v>
   <v>       0.00000000       0.00000000       0.00810152 </v>
   <v>       0.00000000       0.00000000      -0.00810152 </v>
  </varray>
  <varray name="stress" >
   <v>     -16.44458566       0.00000000       0.00000000 </v>
   <v>       0.00000000     -15.48341879       0.00000000 </v>
   <v>       0.00000000       0.00000000     -17.57976294 </v>
  </varray>
  <energy>
   <i name="e_fr_energy">    -31.64342895 </i>
   <i name="e_wo_entrp">    -31.64342895 </i>
   <i name="e_0_energy">      0.00000000 </i>
  </energy>
  <time name="totalsc">   10.63   10.89</time>
 </calculation>
 <calculation>
  <scstep>
   <time name="dav">    0.22    0.23</time>
   <time name="total">    0.71    0.71</time>
   <energy>
    <i name="alphaZ">      1.18323955 </i>
    <i name="ewald">    166.70517207 </i>
    <i name="hartreedc">   -445.03552376 </i>
    <i name="XCdc">     38.89489339 </i>
    <i name="pawpsdc">    156.59693934 </i>
    <i name="pawaedc">   -158.99548388 </i>
    <i name="eentropy">      0.00000000 </i>
    <i name="bandstr">   -133.55144057 </i>
    <i name="atom">    342.54334732 </i>
    <i name="e_fr_energy">    -31.65885654 </i>
    <i name="e_wo_entrp">    -31.65885654 </i>
    <i name="e_0_energy">    -31.65885654 </i>
   </energy>
  </scstep>
  <scstep>
   <time name="dav">    0.24    0.24</time>
   <time name="total">    0.71    0.71</time>
   <energy>
    <i name="e_fr_energy">    -31.65475225 </i>
    <i name="e_wo_entrp">    -31.65475225 </i>
    <i name="e_0_energy">    -31.65475225 </i>
   </energy>
  </scstep>
  <scstep>
   <time name="dav">    0.24    0.24</time>
   <time name="total">    0.70    0.73</time>
   <energy>
    <i name="e_fr_energy">    -31.65392839 </i>
    <i name="e_wo_entrp">    -31.65392839 </i>
    <i name="e_0_energy">    -31.65392839 </i>
   </energy>
  </scstep>
  <scstep>
   <time name="dav">    0.24    0.24</time>
   <time name="total">    0.64    0.65</time>
   <energy>
    <i name="alphaZ">      1.18323955 </i>
    <i name="ewald">    166.70517207 </i>
    <i name="hartreedc">   -443.60919492 </i>
    <i name="XCdc">     38.80993363 </i>
    <i name="pawpsdc">    152.12346460 </i>
    <i name="pawaedc">   -154.50404958 </i>
    <i name="eentropy">      0.00000000 </i>
    <i name="bandstr">   -134.90579553 </i>
    <i name="atom">    342.54334732 </i>
    <i name="e_fr_energy">    -31.65388286 </i>
    <i name="e_wo_entrp">    -31.65388286 </i>
    <i name="e_0_energy">    -31.65388286 </i>
   </energy>
  </scstep>
  <structure>
   <crystal>
    <varray name="basis" >
     <v>       8.00000000       0.00000000       0.00000000 </v>
     <v>       0.00000000       8.00000000       0.00000000 </v>
     <v>       0.00000000       0.00000000       8.00000000 </v>
    </varray>
    <i name="volume">    512.00000000 </i>
    <varray name="rec_basis" >
     <v>       0.12500000       0.00000000       0.00000000 </v>
     <v>       0.00000000       0.12500000       0.00000000 </v>
     <v>       0.00000000       0.00000000       0.12500000 </v>
    </varray>
   </crystal>
   <varray name="positions" >
    <v>       0.00000000       0.11764922       0.15611130 </v>
    <v>       0.00000000       0.88235078       0.15611130 </v>
    <v>       0.00000000       0.11764922       0.84388870 </v>
    <v>       0.00000000       0.88235078       0.84388870 </v>
    <v>       0.00000000       0.00000000       0.08348385 </v>
    <v>       0.00000000       0.00000000       0.91651615 </v>
   </varray>
  </structure>
  <varray name="forces" >
   <v>       0.00000000      -0.16979627      -0.08548628 </v>
   <v>       0.00000000       0.16979627      -0.08548628 </v>
   <v>       0.00000000      -0.16979627       0.08548628 </v>
   <v>       0.00000000       0.16979627       0.08548628 </v>
   <v>       0.00000000       0.00000000       0.54467597 </v>
   <v>       0.00000000       0.00000000      -0.54467597 </v>
  </varray>
  <varray name="stress" >
   <v>     -16.42671894       0.00000000       0.00000000 </v>
   <v>       0.00000000     -21.88255103       0.00000000 </v>
   <v>       0.00000000       0.00000000     -20.30258313 </v>
  </varray>
  <energy>
   <i name="e_fr_energy">    -31.65388286 </i>
   <i name="e_wo_entrp">    -31.65388286 </i>
   <i name="e_0_energy">      0.00000000 </i>
  </energy>
  <time name="totalsc">    3.70    3.78</time>
 </calculation>
 <calculation>
  <scstep>
   <time name="dav">    0.24    0.24</time>
   <time name="total">    0.71    0.71</time>
   <energy>
    <i name="alphaZ">      1.18323955 </i>
    <i name="ewald">    168.39154854 </i>
    <i name="hartreedc">   -444.60311877 </i>
    <i name="XCdc">     38.85255544 </i>
    <i name="pawpsdc">    151.76086742 </i>
    <i name="pawaedc">   -154.14116998 </i>
    <i name="eentropy">      0.00000000 </i>
    <i name="bandstr">   -135.64413332 </i>
    <i name="atom">    342.54334732 </i>
    <i name="e_fr_energy">    -31.65686378 </i>
    <i name="e_wo_entrp">    -31.65686378 </i>
    <i name="e_0_energy">    -31.65686378 </i>
   </energy>
  </scstep>
  <scstep>
   <time name="dav">    0.24    0.24</time>
   <time name="total">    0.71    0.72</time>
   <energy>
    <i name="e_fr_energy">    -31.65652670 </i>
    <i name="e_wo_entrp">    -31.65652670 </i>
    <i name="e_0_energy">    -31.65652670 </i>
   </energy>
  </scstep>
  <scstep>
   <time name="dav">    0.23    0.23</time>
   <time name="total">    0.64    0.65</time>
   <energy>
    <i name="alphaZ">      1.18323955 </i>
    <i name="ewald">    168.39154854 </i>
    <i name="hartreedc">   -445.08889854 </i>
    <i name="XCdc">     38.88141316 </i>
    <i name="pawpsdc">    153.18542321 </i>
    <i name="pawaedc">   -155.57181705 </i>
    <i name="eentropy">      0.00000000 </i>
    <i name="bandstr">   -135.18073389 </i>
    <i name="atom">    342.54334732 </i>
    <i name="e_fr_energy">    -31.65647768 </i>
    <i name="e_wo_entrp">    -31.65647768 </i>
    <i name="e_0_energy">    -31.65647768 </i>
   </energy>
  </scstep>
  <structure>
   <crystal>
    <varray name="basis" >
     <v>       8.00000000       0.00000000       0.00000000 </v>
     <v>       0.00000000       8.00000000       0.00000000 </v>
     <v>       0.00000000       0.00000000       8.00000000 </v>
    </varray>
    <i name="volume">    512.00000000 </i>
    <varray name="rec_basis" >
     <v>       0.12500000       0.00000000       0.00000000 </v>
     <v>       0.00000000       0.12500000       0.00000000 </v>
     <v>       0.00000000       0.00000000       0.12500000 </v>
    </varray>
   </crystal>
   <varray name="positions" >
    <v>       0.00000000       0.11693455       0.15567556 </v>
    <v>       0.00000000       0.88306545       0.15567556 </v>
    <v>       0.00000000       0.11693455       0.84432444 </v>
    <v>       0.00000000       0.88306545       0.84432444 </v>
    <v>       0.00000000       0.00000000       0.08346864 </v>
    <v>       0.00000000       0.00000000       0.91653136 </v>
   </varray>
  </structure>
  <varray name="forces" >
   <v>       0.00000000      -0.00302331       0.01074068 </v>
   <v>       0.00000000       0.00302331       0.01074068 </v>
   <v>       0.00000000      -0.00302331      -0.01074068 </v>
   <v>       0.00000000       0.00302331      -0.01074068 </v>
   <v>       0.00000000       0.00000000       0.39248287 </v>
   <v>       0.00000000       0.00000000      -0.39248287 </v>
  </varray>
  <varray name="stress" >
   <v>     -16.47305200       0.00000000       0.00000000 </v>
   <v>       0.00000000     -20.09811821       0.00000000 </v>
   <v>       0.00000000       0.00000000     -19.46161897 </v>
  </varray>
  <energy>
   <i name="e_fr_energy">    -31.65647768 </i>
   <i name="e_wo_entrp">    -31.65647768 </i>
   <i name="e_0_energy">      0.00000000 </i>
  </energy>
  <time name="totalsc">    3.01    3.07</time>
 </calculation>
 <calculation>
  <scstep>
   <time name="dav">    0.22    0.22</time>
   <time name="total">    0.71    0.72</time>
   <energy>
    <i name="alphaZ">      1.18323955 </i>
    <i name="ewald">    163.08583838 </i>
    <i name="hartreedc">   -441.18446653 </i>
    <i name="XCdc">     38.76620911 </i>
    <i name="pawpsdc">    153.11773813 </i>
    <i name="pawaedc">   -155.50342040 </i>
    <i name="eentropy">      0.00000000 </i>
    <i name="bandstr">   -133.65084291 </i>
    <i name="atom">    342.54334732 </i>
    <i name="e_fr_energy">    -31.64235734 </i>
    <i name="e_wo_entrp">    -31.64235734 </i>
    <i name="e_0_energy">    -31.64235734 </i>
   </energy>
  </scstep>
  <scstep>
   <time name="dav">    0.23    0.23</time>
   <time name="total">    0.70    0.70</time>
   <energy>
    <i name="e_fr_energy">    -31.63839401 </i>
    <i name="e_wo_entrp">    -31.63839401 </i>
    <i name="e_0_energy">    -31.63839401 </i>
   </energy>
  </scstep>
  <scstep>
   <time name="dav">    0.24    0.24</time>
   <time name="total">    0.71    0.72</time>
   <energy>
    <i name="e_fr_energy">    -31.63777006 </i>
    <i name="e_wo_entrp">    -31.63777006 </i>
    <i name="e_0_energy">    -31.63777006 </i>
   </energy>
  </scstep>
  <scstep>
   <time name="dav">    0.24    0.24</time>
   <time name="total">    0.72    0.73</time>
   <energy>
    <i name="e_fr_energy">    -31.63762293 </i>
    <i name="e_wo_entrp">    -31.63762293 </i>
    <i name="e_0_energy">    -31.63762293 </i>
   </energy>
  </scstep>
  <scstep>
   <time name="dav">    0.22    0.22</time>
   <time name="total">    0.63    0.64</time>
   <energy>
    <i name="alphaZ">      1.18323955 </i>
    <i name="ewald">    163.08583838 </i>
    <i name="hartreedc">   -440.06404827 </i>
    <i name="XCdc">     38.71888796 </i>
    <i name="pawpsdc">    149.25168041 </i>
    <i name="pawaedc">   -151.62385905 </i>
    <i name="eentropy">      0.00000000 </i>
    <i name="bandstr">   -134.73273140 </i>
    <i name="atom">    342.54334732 </i>
    <i name="e_fr_energy">    -31.63764509 </i>
    <i name="e_wo_entrp">    -31.63764509 </i>
    <i name="e_0_energy">    -31.63764509 </i>
   </energy>
  </scstep>
  <structure>
   <crystal>
    <varray name="basis" >
     <v>       8.00000000       0.00000000       0.00000000 </v>
     <v>       0.00000000       8.00000000       0.00000000 </v>
     <v>       0.00000000       0.00000000       8.00000000 </v>
    </varray>
    <i name="volume">    512.00000000 </i>
    <varray name="rec_basis" >
     <v>       0.12500000       0.00000000       0.00000000 </v>
     <v>       0.00000000       0.12500000       0.00000000 </v>
     <v>       0.00000000       0.00000000       0.12500000 </v>
    </varray>
   </crystal>
   <varray name="positions" >
    <v>       0.00000000       0.11772112       0.15622630 </v>
    <v>       0.00000000       0.88227888       0.15622630 </v>
    <v>       0.00000000       0.11772112       0.84377370 </v>
    <v>       0.00000000       0.88227888       0.84377370 </v>
    <v>       0.00000000       0.00000000       0.08570516 </v>
    <v>       0.00000000       0.00000000       0.91429484 </v>
   </varray>
  </structure>
  <varray name="forces" >
   <v>       0.00000000      -0.01557340       0.05661479 </v>
   <v>       0.00000000       0.01557340       0.05661479 </v>
   <v>       0.00000000      -0.01557340      -0.05661479 </v>
   <v>       0.00000000       0.01557340      -0.05661479 </v>
   <v>       0.00000000       0.00000000      -1.41067268 </v>
   <v>       0.00000000       0.00000000       1.41067268 </v>
  </varray>
  <varray name="stress" >
   <v>     -16.22955146       0.00000000       0.00000000 </v>
   <v>       0.00000000     -20.07389478       0.00000000 </v>
   <v>       0.00000000       0.00000000     -26.10434595 </v>
  </varray>
  <energy>
   <i name="e_fr_energy">    -31.63764509 </i>
   <i name="e_wo_entrp">    -31.63764509 </i>
   <i name="e_0_energy">      0.00000000 </i>
  </energy>
  <time name="totalsc">    4.40    4.50</time>
 </calculation>
 <calculation>
  <scstep>
   <time name="dav">    0.22    0.23</time>
   <time name="total">    0.70    0.70</time>
   <energy>
    <i name="alphaZ">      1.18323955 </i>
    <i name="ewald">    167.27856984 </i>
    <i name="hartreedc">   -443.12647501 </i>
    <i name="XCdc">     38.80840894 </i>
    <i name="pawpsdc">    149.30245260 </i>
    <i name="pawaedc">   -151.67501551 </i>
    <i name="eentropy">      0.00000000 </i>
    <i name="bandstr">   -135.97514252 </i>
    <i name="atom">    342.54334732 </i>
    <i name="e_fr_energy">    -31.66061479 </i>
    <i name="e_wo_entrp">    -31.66061479 </i>
    <i name="e_0_energy">    -31.66061479 </i>
   </energy>
  </scstep>
  <scstep>
   <time name="dav">    0.22    0.23</time>
   <time name="total">    0.71    0.72</time>
   <energy>
    <i name="e_fr_energy">    -31.65835297 </i>
    <i name="e_wo_entrp">    -31.65835297 </i>
    <i name="e_0_energy">    -31.65835297 </i>
   </energy>
  </scstep>
  <scstep>
   <time name="dav">    0.25    0.25</time>
   <time name="total">    0.80    0.81</time>
   <energy>
    <i name="e_fr_energy">    -31.65804931 </i>
    <i name="e_wo_entrp">    -31.65804931 </i>
    <i name="e_0_energy">    -31.65804931 </i>
   </energy>
  </scstep>
  <scstep>
   <time name="dav">    0.28    0.28</time>
   <time name="total">    0.84    0.85</time>
   <energy>
    <i name="e_fr_energy">    -31.65785153 </i>
    <i name="e_wo_entrp">    -31.65785153 </i>
    <i name="e_0_energy">    -31.65785153 </i>
   </energy>
  </scstep>
  <scstep>
   <time name="dav">    0.26    0.26</time>
   <time name="total">    0.73    0.75</time>
   <energy>
    <i name="alphaZ">      1.18323955 </i>
    <i name="ewald">    167.27856984 </i>
    <i name="hartreedc">   -444.04370122 </i>
    <i name="XCdc">     38.84744309 </i>
    <i name="pawpsdc">    152.43097286 </i>
    <i name="pawaedc">   -154.81425786 </i>
    <i name="eentropy">      0.00000000 </i>
    <i name="bandstr">   -135.08349090 </i>
    <i name="atom">    342.54334732 </i>
    <i name="e_fr_energy">    -31.65787731 </i>
    <i name="e_wo_entrp">    -31.65787731 </i>
    <i name="e_0_energy">    -31.65787731 </i>
   </energy>
  </scstep>
  <structure>
   <crystal>
    <varray name="basis" >
     <v>       8.00000000       0.00000000       0.00000000 </v>
     <v>       0.00000000       8.00000000       0.00000000 </v>
     <v>       0.00000000       0.00000000       8.00000000 </v>
    </varray>
    <i name="volume">    512.00000000 </i>
    <varray name="rec_basis" >
     <v>       0.12500000       0.00000000       0.00000000 </v>
     <v>       0.00000000       0.12500000       0.00000000 </v>
     <v>       0.00000000       0.00000000       0.12500000 </v>
    </varray>
   </crystal>
   <varray name="positions" >
    <v>       0.00000000       0.11709671       0.15578910 </v>
    <v>       0.00000000       0.88290329       0.15578910 </v>
    <v>       0.00000000       0.11709671       0.84421090 </v>
    <v>       0.00000000       0.88290329       0.84421090 </v>
    <v>       0.00000000       0.00000000       0.08392973 </v>
    <v>       0.00000000       0.00000000       0.91607027 </v>
   </varray>
  </structure>
  <varray name="forces" >
   <v>       0.00000000      -0.00661593       0.02071800 </v>
   <v>       0.00000000       0.00661593       0.02071800 </v>
   <v>       0.00000000      -0.00661593      -0.02071800 </v>
   <v>       0.00000000       0.00661593      -0.02071800 </v>
   <v>       0.00000000       0.00000000       0.00455537 </v>
   <v>       0.00000000       0.00000000      -0.00455537 </v>
  </varray>
  <varray name="stress" >
   <v>     -16.43715078       0.00000000       0.00000000 </v>
   <v>       0.00000000     -20.10788989       0.00000000 </v>
   <v>       0.00000000       0.00000000     -20.92414099 </v>
  </varray>
  <energy>
   <i name="e_fr_energy">    -31.65787731 </i>
   <i name="e_wo_entrp">    -31.65787731 </i>
   <i name="e_0_energy">      0.00000000 </i>
  </energy>
  <time name="totalsc">    4.72    4.83</time>
  <eigenvalues>
   <array>
    <dimension dim="1">band</dimension>
    <dimension dim="2">kpoint</dimension>
    <dimension dim="3">spin</dimension>
    <field>eigene</field>
    <field>occ</field>
    <set>
     <set comment="spin 1">
      <set comment="kpoint 1">
       <r>  -18.5447    1.0000 </r>
       <r>  -13.9060    1.0000 </r>
       <r>  -10.9937    1.0000 </r>
       <r>   -9.6912    1.0000 </r>
       <r>   -8.0545    1.0000 </r>
       <r>   -6.3517    1.0000 </r>
       <r>   -0.6691    0.0000 </r>
       <r>   -0.5320    0.0000 </r>
       <r>    1.2626    0.0000 </r>
       <r>    1.2950    0.0000 </r>
      </set>
     </set>
    </set>
   </array>
  </eigenvalues>
  <separator name="orbital magnetization" >
   <v name="MAGDIPOLOUT">      0.00000000      0.00000000      0.00000000</v>
  </separator>
  <dos>
   <i name="efermi">     -5.36657125 </i>
   <total>
    <array>
     <dimension dim="1">gridpoints</dimension>
     <dimension dim="2">spin</dimension>
     <field>energy</field>
     <field>total</field>
     <field>integrated</field>
     <set>
      <set comment="spin 1">
       <r>   -20.5447     0.0000     0.0000 </r>
       <r>   -20.4652     0.0000     0.0000 </r>
       <r>   -20.3857     0.0000     0.0000 </r>
       <r>   -20.3063     0.0000     0.0000 </r>
       <r>   -20.2268     0.0000     0.0000 </r>
       <r>   -20.1473     0.0000     0.0000 </r>
       <r>   -20.0679     0.0000     0.0000 </r>
       <r>   -19.9884     0.0000     0.0000 </r>
       <r>   -19.9089     0.0000     0.0000 </r>
       <r>   -19.8295     0.0000     0.0000 </r>
       <r>   -19.7500     0.0000     0.0000 </r>
       <r>   -19.6705     0.0000     0.0000 </r>
       <r>   -19.5911     0.0000     0.0000 </r>
       <r>   -19.5116     0.0000     0.0000 </r>
       <r>   -19.4321     0.0000     0.0000 </r>
       <r>   -19.3527     0.0000     0.0000 </r>
       <r>   -19.2732     0.0000     0.0000 </r>
       <r>   -19.1937     0.0001     0.0000 </r>
       <r>   -19.1143     0.0007     0.0001 </r>
       <r>   -19.0348     0.0059     0.0005 </r>
       <r>   -18.9553     0.0397     0.0037 </r>
       <r>   -18.8759     0.1949     0.0192 </r>
       <r>   -18.7964     0.7031     0.0750 </r>
       <r>   -18.7169     1.8633     0.2231 </r>
       <r>   -18.6375     3.6301     0.5116 </r>
       <r>   -18.5580     5.1991     0.9247 </r>
       <r>   -18.4785     5.4750     1.3598 </r>
       <r>   -18.3991     4.2392     1.6967 </r>
       <r>   -18.3196     2.4132     1.8884 </r>
       <r>   -18.2401     1.0098     1.9687 </r>
       <r>   -18.1607     0.3106     1.9934 </r>
       <r>   -18.0812     0.0702     1.9990 </r>
       <r>   -18.0018     0.0116     1.9999 </r>
       <r>   -17.9223     0.0014     2.0000 </r>
       <r>   -17.8428     0.0001     2.0000 </r>
       <r>   -17.7634     0.0000     2.0000 </r>
       <r>   -17.6839     0.0000     2.0000 </r>
       <r>   -17.6044     0.0000     2.0000 </r>
       <r>   -17.5250     0.0000     2.0000 </r>
       <r>   -17.4455     0.0000     2.0000 </r>
       <r>   -17.3660     0.0000     2.0000 </r>
       <r>   -17.2866     0.0000     2.0000 </r>
       <r>   -17.2071     0.0000     2.0000 </r>
       <r>   -17.1276     0.0000     2.0000 </r>
       <r>   -17.0482     0.0000     2.0000 </r>
       <r>   -16.9687     0.0000     2.0000 </r>
       <r>   -16.8892     0.0000     2.0000 </r>
       <r>   -16.8098     0.0000     2.0000 </r>
       <r>   -16.7303     0.0000     2.0000 </r>
       <r>   -16.6508     0.0000     2.0000 </r>
       <r>   -16.5714     0.0000     2.0000 </r>
       <r>   -16.4919     0.0000     2.0000 </r>
       <r>   -16.4124     0.0000     2.0000 </r>
       <r>   -16.3330     0.0000     2.0000 </r>
       <r>   -16.2535     0.0000     2.0000 </r>
       <r>   -16.1740     0.0000     2.0000 </r>
       <r>   -16.0946     0.0000     2.0000 </r>
       <r>   -16.0151     0.0000     2.0000 </r>
       <r>   -15.9356     0.0000     2.0000 </r>
       <r>   -15.8562     0.0000     2.0000 </r>
       <r>   -15.7767     0.0000     2.0000 </r>
       <r>   -15.6973     0.0000     2.0000 </r>
       <r>   -15.6178     0.0000     2.0000 </r>
       <r>   -15.5383     0.0000     2.0000 </r>
       <r>   -15.4589     0.0000     2.0000 </r>
       <r>   -15.3794     0.0000     2.0000 </r>
       <r>   -15.2999     0.0000     2.0000 </r>
       <r>   -15.2205     0.0000     2.0000 </r>
       <r>   -15.1410     0.0000     2.0000 </r>
       <r>   -15.0615     0.0000     2.0000 </r>
       <r>   -14.9821     0.0000     2.0000 </r>
       <r>   -14.9026     0.0000     2.0000 </r>
       <r>   -14.8231     0.0000     2.0000 </r>
       <r>   -14.7437     0.0000     2.0000 </r>
       <r>   -14.6642     0.0000     2.0000 </r>
       <r>   -14.5847     0.0000     2.0000 </r>
       <r>   -14.5053     0.0003     2.0000 </r>
       <r>   -14.4258     0.0027     2.0002 </r>
       <r>   -14.3463     0.0203     2.0018 </r>
       <r>   -14.2669     0.1117     2.0107 </r>
       <r>   -14.1874     0.4519     2.0466 </r>
       <r>   -14.1079     1.3434     2.1534 </r>
       <r>   -14.0285     2.9351     2.3866 </r>
       <r>   -13.9490     4.7143     2.7613 </r>
       <r>   -13.8695     5.5671     3.2037 </r>
       <r>   -13.7901     4.8338     3.5878 </r>
       <r>   -13.7106     3.0859     3.8330 </r>
       <r>   -13.6311     1.4482     3.9481 </r>
       <r>   -13.5517     0.4996     3.9878 </r>
       <r>   -13.4722     0.1266     3.9978 </r>
       <r>   -13.3927     0.0236     3.9997 </r>
       <r>   -13.3133     0.0032     4.0000 </r>
       <r>   -13.2338     0.0003     4.0000 </r>
       <r>   -13.1544     0.0000     4.0000 </r>
       <r>   -13.0749     0.0000     4.0000 </r>
       <r>   -12.9954     0.0000     4.0000 </r>
       <r>   -12.9160     0.0000     4.0000 </r>
       <r>   -12.8365     0.0000     4.0000 </r>
       <r>   -12.7570     0.0000     4.0000 </r>
       <r>   -12.6776     0.0000     4.0000 </r>
       <r>   -12.5981     0.0000     4.0000 </r>
       <r>   -12.5186     0.0000     4.0000 </r>
       <r>   -12.4392     0.0000     4.0000 </r>
       <r>   -12.3597     0.0000     4.0000 </r>
       <r>   -12.2802     0.0000     4.0000 </r>
       <r>   -12.2008     0.0000     4.0000 </r>
       <r>   -12.1213     0.0000     4.0000 </r>
       <r>   -12.0418     0.0000     4.0000 </r>
       <r>   -11.9624     0.0000     4.0000 </r>
       <r>   -11.8829     0.0000     4.0000 </r>
       <r>   -11.8034     0.0000     4.0000 </r>
       <r>   -11.7240     0.0000     4.0000 </r>
       <r>   -11.6445     0.0000     4.0000 </r>
       <r>   -11.5650     0.0006     4.0001 </r>
       <r>   -11.4856     0.0057     4.0005 </r>
       <r>   -11.4061     0.0382     4.0035 </r>
       <r>   -11.3266     0.1889     4.0186 </r>
       <r>   -11.2472     0.6859     4.0731 </r>
       <r>   -11.1677     1.8302     4.2185 </r>
       <r>   -11.0882     3.5895     4.5037 </r>
       <r>   -11.0088     5.1756     4.9150 </r>
       <r>   -10.9293     5.4868     5.3510 </r>
       <r>   -10.8499     4.2769     5.6909 </r>
       <r>   -10.7704     2.4510     5.8857 </r>
       <r>   -10.6909     1.0326     5.9677 </r>
       <r>   -10.6115     0.3197     5.9931 </r>
       <r>   -10.5320     0.0727     5.9989 </r>
       <r>   -10.4525     0.0122     5.9999 </r>
       <r>   -10.3731     0.0015     6.0000 </r>
       <r>   -10.2936     0.0004     6.0000 </r>
       <r>   -10.2141     0.0025     6.0002 </r>
       <r>   -10.1347     0.0188     6.0017 </r>
       <r>   -10.0552     0.1050     6.0101 </r>
       <r>    -9.9757     0.4301     6.0442 </r>
       <r>    -9.8963     1.2941     6.1471 </r>
       <r>    -9.8168     2.8622     6.3745 </r>
       <r>    -9.7373     4.6536     6.7443 </r>
       <r>    -9.6579     5.5630     7.1864 </r>
       <r>    -9.5784     4.8896     7.5749 </r>
       <r>    -9.4989     3.1598     7.8260 </r>
       <r>    -9.4195     1.5012     7.9453 </r>
       <r>    -9.3400     0.5242     7.9870 </r>
       <r>    -9.2605     0.1345     7.9977 </r>
       <r>    -9.1811     0.0254     7.9997 </r>
       <r>    -9.1016     0.0035     8.0000 </r>
       <r>    -9.0221     0.0004     8.0000 </r>
       <r>    -8.9427     0.0000     8.0000 </r>
       <r>    -8.8632     0.0000     8.0000 </r>
       <r>    -8.7837     0.0000     8.0000 </r>
       <r>    -8.7043     0.0001     8.0000 </r>
       <r>    -8.6248     0.0006     8.0001 </r>
       <r>    -8.5453     0.0058     8.0005 </r>
       <r>    -8.4659     0.0391     8.0036 </r>
       <r>    -8.3864     0.1925     8.0189 </r>
       <r>    -8.3070     0.6960     8.0742 </r>
       <r>    -8.2275     1.8497     8.2212 </r>
       <r>    -8.1480     3.6134     8.5084 </r>
       <r>    -8.0686     5.1896     8.9207 </r>
       <r>    -7.9891     5.4800     9.3562 </r>
       <r>    -7.9096     4.2547     9.6943 </r>
       <r>    -7.8302     2.4287     9.8873 </r>
       <r>    -7.7507     1.0191     9.9683 </r>
       <r>    -7.6712     0.3143     9.9933 </r>
       <r>    -7.5918     0.0712     9.9989 </r>
       <r>    -7.5123     0.0119     9.9999 </r>
       <r>    -7.4328     0.0014    10.0000 </r>
       <r>    -7.3534     0.0001    10.0000 </r>
       <r>    -7.2739     0.0000    10.0000 </r>
       <r>    -7.1944     0.0000    10.0000 </r>
       <r>    -7.1150     0.0000    10.0000 </r>
       <r>    -7.0355     0.0000    10.0000 </r>
       <r>    -6.9560     0.0002    10.0000 </r>
       <r>    -6.8766     0.0023    10.0002 </r>
       <r>    -6.7971     0.0180    10.0016 </r>
       <r>    -6.7176     0.1010    10.0097 </r>
       <r>    -6.6382     0.4167    10.0428 </r>
       <r>    -6.5587     1.2636    10.1432 </r>
       <r>    -6.4792     2.8164    10.3670 </r>
       <r>    -6.3998     4.6146    10.7337 </r>
       <r>    -6.3203     5.5590    11.1754 </r>
       <r>    -6.2408     4.9239    11.5667 </r>
       <r>    -6.1614     3.2066    11.8215 </r>
       <r>    -6.0819     1.5352    11.9435 </r>
       <r>    -6.0025     0.5402    11.9865 </r>
       <r>    -5.9230     0.1397    11.9976 </r>
       <r>    -5.8435     0.0265    11.9997 </r>
       <r>    -5.7641     0.0037    12.0000 </r>
       <r>    -5.6846     0.0004    12.0000 </r>
       <r>    -5.6051     0.0000    12.0000 </r>
       <r>    -5.5257     0.0000    12.0000 </r>
       <r>    -5.4462     0.0000    12.0000 </r>
       <r>    -5.3667     0.0000    12.0000 </r>
       <r>    -5.2873     0.0000    12.0000 </r>
       <r>    -5.2078     0.0000    12.0000 </r>
       <r>    -5.1283     0.0000    12.0000 </r>
       <r>    -5.0489     0.0000    12.0000 </r>
       <r>    -4.9694     0.0000    12.0000 </r>
       <r>    -4.8899     0.0000    12.0000 </r>
       <r>    -4.8105     0.0000    12.0000 </r>
       <r>    -4.7310     0.0000    12.0000 </r>
       <r>    -4.6515     0.0000    12.0000 </r>
       <r>    -4.5721     0.0000    12.0000 </r>
       <r>    -4.4926     0.0000    12.0000 </r>
       <r>    -4.4131     0.0000    12.0000 </r>
       <r>    -4.3337     0.0000    12.0000 </r>
       <r>    -4.2542     0.0000    12.0000 </r>
       <r>    -4.1747     0.0000    12.0000 </r>
       <r>    -4.0953     0.0000    12.0000 </r>
       <r>    -4.0158     0.0000    12.0000 </r>
       <r>    -3.9363     0.0000    12.0000 </r>
       <r>    -3.8569     0.0000    12.0000 </r>
       <r>    -3.7774     0.0000    12.0000 </r>
       <r>    -3.6979     0.0000    12.0000 </r>
       <r>    -3.6185     0.0000    12.0000 </r>
       <r>    -3.5390     0.0000    12.0000 </r>
       <r>    -3.4596     0.0000    12.0000 </r>
       <r>    -3.3801     0.0000    12.0000 </r>
       <r>    -3.3006     0.0000    12.0000 </r>
       <r>    -3.2212     0.0000    12.0000 </r>
       <r>    -3.1417     0.0000    12.0000 </r>
       <r>    -3.0622     0.0000    12.0000 </r>
       <r>    -2.9828     0.0000    12.0000 </r>
       <r>    -2.9033     0.0000    12.0000 </r>
       <r>    -2.8238     0.0000    12.0000 </r>
       <r>    -2.7444     0.0000    12.0000 </r>
       <r>    -2.6649     0.0000    12.0000 </r>
       <r>    -2.5854     0.0000    12.0000 </r>
       <r>    -2.5060     0.0000    12.0000 </r>
       <r>    -2.4265     0.0000    12.0000 </r>
       <r>    -2.3470     0.0000    12.0000 </r>
       <r>    -2.2676     0.0000    12.0000 </r>
       <r>    -2.1881     0.0000    12.0000 </r>
       <r>    -2.1086     0.0000    12.0000 </r>
       <r>    -2.0292     0.0000    12.0000 </r>
       <r>    -1.9497     0.0000    12.0000 </r>
       <r>    -1.8702     0.0000    12.0000 </r>
       <r>    -1.7908     0.0000    12.0000 </r>
       <r>    -1.7113     0.0000    12.0000 </r>
       <r>    -1.6318     0.0000    12.0000 </r>
       <r>    -1.5524     0.0000    12.0000 </r>
       <r>    -1.4729     0.0000    12.0000 </r>
       <r>    -1.3934     0.0000    12.0000 </r>
       <r>    -1.3140     0.0001    12.0000 </r>
       <r>    -1.2345     0.0007    12.0001 </r>
       <r>    -1.1551     0.0068    12.0006 </r>
       <r>    -1.0756     0.0450    12.0042 </r>
       <r>    -0.9961     0.2219    12.0218 </r>
       <r>    -0.9167     0.8157    12.0866 </r>
       <r>    -0.8372     2.2531    12.2657 </r>
       <r>    -0.7577     4.7304    12.6416 </r>
       <r>    -0.6783     7.6526    13.2497 </r>
       <r>    -0.5988     9.6670    14.0179 </r>
       <r>    -0.5193     9.6156    14.7820 </r>
       <r>    -0.4399     7.5296    15.3803 </r>
       <r>    -0.3604     4.6017    15.7460 </r>
       <r>    -0.2809     2.1656    15.9181 </r>
       <r>    -0.2015     0.7742    15.9796 </r>
       <r>    -0.1220     0.2079    15.9961 </r>
       <r>    -0.0425     0.0416    15.9995 </r>
       <r>     0.0369     0.0062    15.9999 </r>
       <r>     0.1164     0.0007    16.0000 </r>
       <r>     0.1959     0.0001    16.0000 </r>
       <r>     0.2753     0.0000    16.0000 </r>
       <r>     0.3548     0.0000    16.0000 </r>
       <r>     0.4343     0.0000    16.0000 </r>
       <r>     0.5137     0.0000    16.0000 </r>
       <r>     0.5932     0.0000    16.0000 </r>
       <r>     0.6727     0.0005    16.0000 </r>
       <r>     0.7521     0.0049    16.0004 </r>
       <r>     0.8316     0.0368    16.0034 </r>
       <r>     0.9111     0.2039    16.0196 </r>
       <r>     0.9905     0.8323    16.0857 </r>
       <r>     1.0700     2.5057    16.2848 </r>
       <r>     1.1495     5.5657    16.7271 </r>
       <r>     1.2289     9.1233    17.4521 </r>
       <r>     1.3084    11.0386    18.3293 </r>
       <r>     1.3878     9.8589    19.1127 </r>
       <r>     1.4673     6.4994    19.6292 </r>
       <r>     1.5468     3.1623    19.8805 </r>
       <r>     1.6262     1.1352    19.9707 </r>
       <r>     1.7057     0.3006    19.9946 </r>
       <r>     1.7852     0.0587    19.9993 </r>
       <r>     1.8646     0.0084    19.9999 </r>
       <r>     1.9441     0.0009    20.0000 </r>
       <r>     2.0236     0.0001    20.0000 </r>
       <r>     2.1030     0.0000    20.0000 </r>
       <r>     2.1825     0.0000    20.0000 </r>
       <r>     2.2620     0.0000    20.0000 </r>
       <r>     2.3414     0.0000    20.0000 </r>
       <r>     2.4209     0.0000    20.0000 </r>
       <r>     2.5004     0.0000    20.0000 </r>
       <r>     2.5798     0.0000    20.0000 </r>
       <r>     2.6593     0.0000    20.0000 </r>
       <r>     2.7388     0.0000    20.0000 </r>
       <r>     2.8182     0.0000    20.0000 </r>
       <r>     2.8977     0.0000    20.0000 </r>
       <r>     2.9772     0.0000    20.0000 </r>
       <r>     3.0566     0.0000    20.0000 </r>
       <r>     3.1361     0.0000    20.0000 </r>
       <r>     3.2156     0.0000    20.0000 </r>
       <r>     3.2950     0.0000    20.0000 </r>
      </set>
     </set>
    </array>
   </total>
  </dos>
 </calculation>
 <structure name="finalpos" >
  <crystal>
   <varray name="basis" >
    <v>       8.00000000       0.00000000       0.00000000 </v>
    <v>       0.00000000       8.00000000       0.00000000 </v>
    <v>       0.00000000       0.00000000       8.00000000 </v>
   </varray>
   <i name="volume">    512.00000000 </i>
   <varray name="rec_basis" >
    <v>       0.12500000       0.00000000       0.00000000 </v>
    <v>       0.00000000       0.12500000       0.00000000 </v>
    <v>       0.00000000       0.00000000       0.12500000 </v>
   </varray>
  </crystal>
  <varray name="positions" >
   <v>       0.00000000       0.11709671       0.15578910 </v>
   <v>       0.00000000       0.88290329       0.15578910 </v>
   <v>       0.00000000       0.11709671       0.84421090 </v>
   <v>       0.00000000       0.88290329       0.84421090 </v>
   <v>       0.00000000       0.00000000       0.08392973 </v>
   <v>       0.00000000       0.00000000       0.91607027 </v>
  </varray>
 </structure>
</modeling>
