 running on    1 nodes
 distr:  one band on    1 nodes,    1 groups
 vasp.5.2.12 11Nov11 complex                                                    
  
 POSCAR found :  2 types and       5 ions
 LDA part: xc-table for Pade appr. of Perdew
 POSCAR, INCAR and KPOINTS ok, starting setup
 WARNING: small aliasing (wrap around) errors must be expected
 FFT: planning ...(           2 )
 WAVECAR not read
 entering main loop
       N       E                     dE             d eps       ncg     rms          rms(c)
DAV:   1     0.223280304809E+03    0.22328E+03   -0.76431E+03    48   0.644E+02
DAV:   2     0.192015432760E+02   -0.20408E+03   -0.19767E+03    64   0.177E+02
DAV:   3    -0.168592413409E+02   -0.36061E+02   -0.35896E+02    48   0.911E+01
DAV:   4    -0.177272319301E+02   -0.86799E+00   -0.86414E+00    48   0.167E+01
DAV:   5    -0.177582041103E+02   -0.30972E-01   -0.30966E-01    56   0.270E+00    0.459E+00
DAV:   6    -0.174867666997E+02    0.27144E+00   -0.33069E-01    48   0.355E+00    0.261E+00
DAV:   7    -0.174194965122E+02    0.67270E-01   -0.18265E-01    44   0.250E+00    0.600E-01
DAV:   8    -0.174196131880E+02   -0.11668E-03   -0.99415E-03    52   0.631E-01    0.199E-01
DAV:   9    -0.174207909618E+02   -0.11778E-02   -0.17472E-03    40   0.260E-01    0.584E-02
DAV:  10    -0.174216785810E+02   -0.88762E-03   -0.20498E-04    24   0.103E-01    0.245E-02
DAV:  11    -0.174226178832E+02   -0.93930E-03   -0.23708E-04    32   0.748E-02    0.165E-02
DAV:  12    -0.174232678637E+02   -0.64998E-03   -0.11441E-04    24   0.837E-02    0.129E-02
DAV:  13    -0.174233615211E+02   -0.93657E-04   -0.33798E-05    24   0.489E-02
   1 F= -.17423362E+02 E0= -.17423362E+02  d E =-.174234E+02
 curvature:   0.00 expect dE= 0.000E+00 dE for cont linesearch  0.000E+00
 trial: gam= 0.00000 g(F)=  0.776E-02 g(S)=  0.000E+00 ort = 0.000E+00 (trialstep = 0.100E+01)
 search vector abs. value=  0.776E-02
 bond charge predicted
       N       E                     dE             d eps       ncg     rms          rms(c)
DAV:   1    -0.174240199323E+02   -0.75207E-03   -0.69766E-01    40   0.464E+00    0.149E-01
DAV:   2    -0.174262415391E+02   -0.22216E-02   -0.26548E-02    44   0.104E+00    0.111E-01
DAV:   3    -0.174261252888E+02    0.11625E-03   -0.64884E-04    56   0.177E-01    0.628E-02
DAV:   4    -0.174261165043E+02    0.87845E-05   -0.12567E-04    24   0.746E-02
   2 F= -.17426117E+02 E0= -.17426117E+02  d E =-.275498E-02
 trial-energy change:   -0.002755  1 .order   -0.002882   -0.007761    0.001996
 step:   0.7954(harm=  0.7954)  dis= 0.00444  next Energy=   -17.426448 (dE=-0.309E-02)
 bond charge predicted
       N       E                     dE             d eps       ncg     rms          rms(c)
DAV:   1    -0.174263126585E+02   -0.18737E-03   -0.29709E-02    44   0.980E-01    0.280E-02
DAV:   2    -0.174264100825E+02   -0.97424E-04   -0.11923E-03    48   0.224E-01    0.224E-02
DAV:   3    -0.174264038756E+02    0.62070E-05   -0.24261E-05    24   0.385E-02
   3 F= -.17426404E+02 E0= -.17426404E+02  d E =-.304235E-02
 curvature:  -0.40 expect dE=-0.827E-05 dE for cont linesearch -0.827E-05
 trial: gam= 0.00000 g(F)=  0.208E-04 g(S)=  0.000E+00 ort =-0.402E-03 (trialstep = 0.959E+00)
 search vector abs. value=  0.208E-04
 reached required accuracy - stopping structural energy minimisation
 writing wavefunctions
NPROCS =  1
