unknown system                          
   1.00000000000000     
     8.000000    0.000000    0.000000
     0.000000    8.000000    0.000000
     0.000000    0.000000    8.000000
   C    Cl
     1     4
Direct
  0.000000  0.000000  0.000000
  0.127668  0.127668  0.127668
  0.872332  0.872332  0.127668
  0.872332  0.127668  0.872332
  0.127668  0.872332  0.872332
 
   64   64   64
  580.83      621.52      699.15      727.02      660.82      527.61      383.57      267.94      189.90      140.47    
  109.22      87.284      68.436      51.866      39.714      31.456      24.131      17.109      12.315      9.8935    
  7.5963      4.6998      2.8885      2.6631      2.2333     0.84039     0.57086E-01 0.64914      1.0269     0.18995    
 -.45994     0.16164     0.76398     0.16164     -.45994     0.18995      1.0269     0.64914     0.57086E-01 0.84039    
  2.2333      2.6631      2.8885      4.6998      7.5963      9.8935      12.315      17.109      24.131      31.456    
  39.714      51.866      68.436      87.284      109.22      140.47      189.90      267.94      383.57      527.61    
  660.82      727.02      699.15      621.52      621.52      654.59      714.73      726.31      652.28      519.20    
  378.72      266.95      191.51      143.38      112.43      90.241      71.049      54.177      41.618      32.842    
  25.095      17.808      12.770      10.094      7.6704      4.7960      2.9893      2.6834      2.2128     0.87520    
 0.11882     0.64338     0.97731     0.19584     -.40959     0.15978     0.71381     0.15978     -.40959     0.19584    
 0.97731     0.64338     0.11882     0.87520      2.2128      2.6834      2.9893      4.7960      7.6704      10.094    
  12.770      17.808      25.095      32.842      41.618      54.177      71.049      90.241      112.43      143.38    
  191.51      266.95      378.72      519.20      652.28      726.31      714.73      654.59      699.15      714.73    
  735.24      711.32      622.65      493.63      364.81      264.51      196.58      152.13      121.99      99.016    
  78.757      60.924      47.128      36.853      27.886      19.821      14.077      10.689      7.9074      5.0734    
  3.2670      2.7433      2.1627     0.96847     0.28101     0.62805     0.84752     0.21176     -.27732     0.15525    
 0.58276     0.15525     -.27732     0.21176     0.84752     0.62805     0.28101     0.96847      2.1627      2.7433    
  3.2670      5.0734      7.9074      10.689      14.077      19.821      27.886      36.853      47.128      60.924    
  78.757      99.016      121.99      152.13      196.58      264.51      364.81      493.63      622.65      711.32    
  735.24      714.73      727.02      726.31      711.32      659.52      566.32      451.61      344.03      261.99    
  205.53      166.53      137.46      113.16      91.086      71.518      55.651      43.046      32.202      22.897    
  16.069      11.649      8.3333      5.4982      3.6577      2.8398      2.1119      1.0928     0.48730     0.60850    
 0.68454     0.23319     -.10948     0.15068     0.41897     0.15068     -.10948     0.23319     0.68454     0.60850    
 0.48730      1.0928      2.1119      2.8398      3.6577      5.4982      8.3333      11.649      16.069      22.897    
  32.202      43.046      55.651      71.518      91.086      113.16      137.46      166.53      205.53      261.99    
  344.03      451.61      566.32      659.52      711.32      726.31      660.82      652.28      622.65      566.32    
  486.69      398.51      320.27      260.90      218.18      185.53      157.57      131.56      107.01      84.908    
  66.217      50.693      37.524      26.630      18.478      12.891      8.9434      6.0141      4.0837      2.9674    
  2.0903      1.2180     0.67722     0.59151     0.53938     0.25470     0.43364E-01 0.14886     0.27450     0.14886    
 0.43364E-01 0.25470     0.53938     0.59151     0.67722      1.2180      2.0903      2.9674      4.0837      6.0141    
  8.9434      12.891      18.478      26.630      37.524      50.693      66.217      84.908      107.01      131.56    
  157.57      185.53      218.18      260.90      320.27      398.51      486.69      566.32      622.65      652.28    
  527.61      519.20      493.63      451.61      398.51      344.34      297.86      261.78      233.00      206.72    
  179.89      152.12      124.76      99.537      77.520      58.810      43.144      30.496      20.963      14.254    
  9.6694      6.5465      4.4762      3.1139      2.1121      1.3219     0.81244     0.58209     0.44386     0.27193    
 0.14871     0.15065     0.18092     0.15065     0.14871     0.27193     0.44386     0.58209     0.81244      1.3219    
  2.1121      3.1139      4.4762      6.5465      9.6694      14.254      20.963      30.496      43.144      58.810    
  77.520      99.537      124.76      152.12      179.89      206.72      233.00      261.78      297.86      344.34    
  398.51      451.61      493.63      519.20      383.57      378.72      364.81      344.03      320.27      297.86    
  279.20      263.33      246.84      226.40      200.93      171.83      141.82      113.37      87.994      66.247    
  48.239      33.929      23.156      15.519      10.379      7.0109      4.7848      3.2558      2.1656      1.3939    
 0.88520     0.58048     0.40114     0.28280     0.20087     0.15413     0.13973     0.15413     0.20087     0.28280    
 0.40114     0.58048     0.88520      1.3939      2.1656      3.2558      4.7848      7.0109      10.379      15.519    
  23.156      33.929      48.239      66.247      87.994      113.37      141.82      171.83      200.93      226.40    
  246.84      263.33      279.20      297.86      320.27      344.03      364.81      378.72      267.94      266.95    
  264.51      261.99      260.90      261.78      263.33      262.49      255.61      240.30      216.67      187.14    
  155.23      124.14      95.989      71.837      52.004      36.404      24.718      16.446      10.910      7.3273    
  4.9767      3.3600      2.2191      1.4306     0.90873     0.58181     0.39292     0.28731     0.21445     0.15616    
 0.13147     0.15616     0.21445     0.28731     0.39292     0.58181     0.90873      1.4306      2.2191      3.3600    
  4.9767      7.3273      10.910      16.446      24.718      36.404      52.004      71.837      95.989      124.14    
  155.23      187.14      216.67      240.30      255.61      262.49      263.33      261.78      260.90      261.99    
  264.51      266.95      189.90      191.51      196.58      205.53      218.18      233.00      246.84      255.61    
  255.57      244.71      223.52      194.72      162.21      129.75      100.06      74.601      53.799      37.527    
  25.397      16.841      11.127      7.4370      5.0328      3.3946      2.2382      1.4318     0.90106     0.57887    
 0.39536     0.28656     0.20991     0.15489     0.13361     0.15489     0.20991     0.28656     0.39536     0.57887    
 0.90106      1.4318      2.2382      3.3946      5.0328      7.4370      11.127      16.841      25.397      37.527    
  53.799      74.601      100.06      129.75      162.21      194.72      223.52      244.71      255.57      255.61    
  246.84      233.00      218.18      205.53      196.58      191.51      140.47      143.38      152.13      166.53    
  185.53      206.72      226.40      240.30      244.71      237.61      219.33      192.45      160.95      128.89    
  99.348      73.978      53.268      37.095      25.065      16.603      10.960      7.3157      4.9482      3.3412    
  2.2015      1.3987     0.87412     0.56613     0.39237     0.28162     0.20165     0.15057     0.13307     0.15057    
 0.20165     0.28162     0.39237     0.56613     0.87412      1.3987      2.2015      3.3412      4.9482      7.3157    
  10.960      16.603      25.065      37.095      53.268      73.978      99.348      128.89      160.95      192.45    
  219.33      237.61      244.71      240.30      226.40      206.72      185.53      166.53      152.13      143.38    
  109.22      112.43      121.99      137.46      157.57      179.89      200.93      216.67      223.52      219.33    
  204.13      180.18      151.30      121.49      93.830      69.968      50.422      35.123      23.740      15.744    
  10.418      6.9768      4.7330      3.2006      2.1066      1.3340     0.83231     0.54196     0.37922     0.27296    
 0.19425     0.14410     0.12716     0.14410     0.19425     0.27296     0.37922     0.54196     0.83231      1.3340    
  2.1066      3.2006      4.7330      6.9768      10.418      15.744      23.740      35.123      50.422      69.968    
  93.830      121.49      151.30      180.18      204.13      219.33      223.52      216.67      200.93      179.89    
  157.57      137.46      121.99      112.43      87.284      90.241      99.016      113.16      131.56      152.12    
  171.83      187.14      194.72      192.45      180.18      159.85      134.85      108.78      84.368      63.138    
  45.623      31.848      21.581      14.373      9.5743      6.4623      4.4098      2.9869      1.9630      1.2419    
 0.77656     0.50815     0.35819     0.26037     0.18585     0.13561     0.11778     0.13561     0.18585     0.26037    
 0.35819     0.50815     0.77656      1.2419      1.9630      2.9869      4.4098      6.4623      9.5743      14.373    
  21.581      31.848      45.623      63.138      84.368      108.78      134.85      159.85      180.18      192.45    
  194.72      187.14      171.83      152.12      131.56      113.16      99.016      90.241      68.436      71.049    
  78.757      91.086      107.01      124.76      141.82      155.23      162.21      160.95      151.30      134.85    
  114.38      92.813      72.400      54.445      39.496      27.676      18.855      12.663      8.5317      5.8259    
  4.0057      2.7173      1.7821      1.1270     0.70826     0.46758     0.33247     0.24335     0.17365     0.12472    
 0.10681     0.12472     0.17365     0.24335     0.33247     0.46758     0.70826      1.1270      1.7821      2.7173    
  4.0057      5.8259      8.5317      12.663      18.855      27.676      39.496      54.445      72.400      92.813    
  114.38      134.85      151.30      160.95      162.21      155.23      141.82      124.76      107.01      91.086    
  78.757      71.049      51.866      54.177      60.924      71.518      84.908      99.537      113.37      124.14    
  129.75      128.89      121.49      108.78      92.813      75.802      59.492      44.968      32.774      23.100    
  15.878      10.805      7.3950      5.1196      3.5463      2.4064      1.5733     0.99488     0.63065     0.42260    
 0.30351     0.22201     0.15721     0.11182     0.95256E-01 0.11182     0.15721     0.22201     0.30351     0.42260    
 0.63065     0.99488      1.5733      2.4064      3.5463      5.1196      7.3950      10.805      15.878      23.100    
  32.774      44.968      59.492      75.802      92.813      108.78      121.49      128.89      129.75      124.14    
  113.37      99.537      84.908      71.518      60.924      54.177      39.714      41.618      47.128      55.651    
  66.217      77.520      87.994      95.989      100.06      99.348      93.830      84.368      72.400      59.492    
  46.951      35.668      26.146      18.588      12.949      8.9699      6.2531      4.3875      3.0545      2.0682    
  1.3467     0.85331     0.54860     0.37505     0.27188     0.19766     0.13851     0.98254E-01 0.83902E-01 0.98254E-01
 0.13851     0.19766     0.27188     0.37505     0.54860     0.85331      1.3467      2.0682      3.0545      4.3875    
  6.2531      8.9699      12.949      18.588      26.146      35.668      46.951      59.492      72.400      84.368    
  93.830      99.348      100.06      95.989      87.994      77.520      66.217      55.651      47.128      41.618    
  31.456      32.842      36.853      43.046      50.693      58.810      66.247      71.837      74.601      73.978    
  69.968      63.138      54.445      44.968      35.668      27.250      20.138      14.503      10.290      7.2813    
  5.1708      3.6654      2.5535      1.7203      1.1166     0.71283     0.46799     0.32719     0.23899     0.17262    
 0.12015     0.85532E-01 0.73466E-01 0.85532E-01 0.12015     0.17262     0.23899     0.32719     0.46799     0.71283    
  1.1166      1.7203      2.5535      3.6654      5.1708      7.2813      10.290      14.503      20.138      27.250    
  35.668      44.968      54.445      63.138      69.968      73.978      74.601      71.837      66.247      58.810    
  50.693      43.046      36.853      32.842      24.131      25.095      27.886      32.202      37.524      43.144    
  48.239      52.004      53.799      53.268      50.422      45.623      39.496      32.774      26.146      20.138    
  15.070      11.051      8.0200      5.8033      4.1864      2.9824      2.0691      1.3852     0.90032     0.58439    
 0.39454     0.28194     0.20701     0.14895     0.10366     0.74404E-01 0.64325E-01 0.74404E-01 0.10366     0.14895    
 0.20701     0.28194     0.39454     0.58439     0.90032      1.3852      2.0691      2.9824      4.1864      5.8033    
  8.0200      11.051      15.070      20.138      26.146      32.774      39.496      45.623      50.422      53.268    
  53.799      52.004      48.239      43.144      37.524      32.202      27.886      25.095      17.109      17.808    
  19.821      22.897      26.630      30.496      33.929      36.404      37.527      37.095      35.123      31.848    
  27.676      23.100      18.588      14.503      11.051      8.2902      6.1635      4.5492      3.3155      2.3606    
  1.6265      1.0848     0.71237     0.47553     0.33183     0.24149     0.17740     0.12723     0.89006E-01 0.64765E-01
 0.56464E-01 0.64765E-01 0.89006E-01 0.12723     0.17740     0.24149     0.33183     0.47553     0.71237      1.0848    
  1.6265      2.3606      3.3155      4.5492      6.1635      8.2902      11.051      14.503      18.588      23.100    
  27.676      31.848      35.123      37.095      37.527      36.404      33.929      30.496      26.630      22.897    
  19.821      17.808      12.315      12.770      14.077      16.069      18.478      20.963      23.156      24.718    
  25.397      25.065      23.740      21.581      18.855      15.878      12.949      10.290      8.0200      6.1635    
  4.6802      3.5011      2.5607      1.8157      1.2447     0.83366     0.55973     0.38784     0.27969     0.20571    
 0.14987     0.10662     0.75176E-01 0.55993E-01 0.49536E-01 0.55993E-01 0.75176E-01 0.10662     0.14987     0.20571    
 0.27969     0.38784     0.55973     0.83366      1.2447      1.8157      2.5607      3.5011      4.6802      6.1635    
  8.0200      10.290      12.949      15.878      18.855      21.581      23.740      25.065      25.397      24.718    
  23.156      20.963      18.478      16.069      14.077      12.770      9.8935      10.094      10.689      11.649    
  12.891      14.254      15.519      16.446      16.841      16.603      15.744      14.373      12.663      10.805    
  8.9699      7.2813      5.8033      4.5492      3.5011      2.6323      1.9215      1.3575     0.93294     0.63537    
 0.44103     0.31767     0.23468     0.17233     0.12314     0.86222E-01 0.61414E-01 0.47444E-01 0.42958E-01 0.47444E-01
 0.61414E-01 0.86222E-01 0.12314     0.17233     0.23468     0.31767     0.44103     0.63537     0.93294      1.3575    
  1.9215      2.6323      3.5011      4.5492      5.8033      7.2813      8.9699      10.805      12.663      14.373    
  15.744      16.603      16.841      16.446      15.519      14.254      12.891      11.649      10.689      10.094    
  7.5963      7.6704      7.9074      8.3333      8.9434      9.6694      10.379      10.910      11.127      10.960    
  10.418      9.5743      8.5317      7.3950      6.2531      5.1708      4.1864      3.3155      2.5607      1.9215    
  1.3982     0.99001     0.69054     0.48472     0.34959     0.25933     0.19290     0.13932     0.96697E-01 0.66398E-01
 0.48069E-01 0.39012E-01 0.36373E-01 0.39012E-01 0.48069E-01 0.66398E-01 0.96697E-01 0.13932     0.19290     0.25933    
 0.34959     0.48472     0.69054     0.99001      1.3982      1.9215      2.5607      3.3155      4.1864      5.1708    
  6.2531      7.3950      8.5317      9.5743      10.418      10.960      11.127      10.910      10.379      9.6694    
  8.9434      8.3333      7.9074      7.6704      4.6998      4.7960      5.0734      5.4982      6.0141      6.5465    
  7.0109      7.3273      7.4370      7.3157      6.9768      6.4623      5.8259      5.1196      4.3875      3.6654    
  2.9824      2.3606      1.8157      1.3575     0.99001     0.71080     0.51018     0.37215     0.27741     0.20821    
 0.15279     0.10704     0.71899E-01 0.48773E-01 0.36440E-01 0.31393E-01 0.30174E-01 0.31393E-01 0.36440E-01 0.48773E-01
 0.71899E-01 0.10704     0.15279     0.20821     0.27741     0.37215     0.51018     0.71080     0.99001      1.3575    
  1.8157      2.3606      2.9824      3.6654      4.3875      5.1196      5.8259      6.4623      6.9768      7.3157    
  7.4370      7.3273      7.0109      6.5465      6.0141      5.4982      5.0734      4.7960      2.8885      2.9893    
  3.2670      3.6577      4.0837      4.4762      4.7848      4.9767      5.0328      4.9482      4.7330      4.4098    
  4.0057      3.5463      3.0545      2.5535      2.0691      1.6265      1.2447     0.93294     0.69054     0.51018    
 0.38034     0.28737     0.21800     0.16232     0.11572     0.78137E-01 0.51163E-01 0.35075E-01 0.27738E-01 0.25532E-01
 0.25221E-01 0.25532E-01 0.27738E-01 0.35075E-01 0.51163E-01 0.78137E-01 0.11572     0.16232     0.21800     0.28737    
 0.38034     0.51018     0.69054     0.93294      1.2447      1.6265      2.0691      2.5535      3.0545      3.5463    
  4.0057      4.4098      4.7330      4.9482      5.0328      4.9767      4.7848      4.4762      4.0837      3.6577    
  3.2670      2.9893      2.6631      2.6834      2.7433      2.8398      2.9674      3.1139      3.2558      3.3600    
  3.3946      3.3412      3.2006      2.9869      2.7173      2.4064      2.0682      1.7203      1.3852      1.0848    
 0.83366     0.63537     0.48472     0.37215     0.28737     0.22136     0.16741     0.12189     0.84193E-01 0.55369E-01
 0.36206E-01 0.25924E-01 0.22107E-01 0.21595E-01 0.21763E-01 0.21595E-01 0.22107E-01 0.25924E-01 0.36206E-01 0.55369E-01
 0.84193E-01 0.12189     0.16741     0.22136     0.28737     0.37215     0.48472     0.63537     0.83366      1.0848    
  1.3852      1.7203      2.0682      2.4064      2.7173      2.9869      3.2006      3.3412      3.3946      3.3600    
  3.2558      3.1139      2.9674      2.8398      2.7433      2.6834      2.2333      2.2128      2.1627      2.1119    
  2.0903      2.1121      2.1656      2.2191      2.2382      2.2015      2.1066      1.9630      1.7821      1.5733    
  1.3467      1.1166     0.90032     0.71237     0.55973     0.44103     0.34959     0.27741     0.21800     0.16741    
 0.12410     0.88049E-01 0.59774E-01 0.39526E-01 0.26862E-01 0.20522E-01 0.18533E-01 0.18614E-01 0.18886E-01 0.18614E-01
 0.18533E-01 0.20522E-01 0.26862E-01 0.39526E-01 0.59774E-01 0.88049E-01 0.12410     0.16741     0.21800     0.27741    
 0.34959     0.44103     0.55973     0.71237     0.90032      1.1166      1.3467      1.5733      1.7821      1.9630    
  2.1066      2.2015      2.2382      2.2191      2.1656      2.1121      2.0903      2.1119      2.1627      2.2128    
 0.84039     0.87520     0.96847      1.0928      1.2180      1.3219      1.3939      1.4306      1.4318      1.3987    
  1.3340      1.2419      1.1270     0.99488     0.85331     0.71283     0.58439     0.47553     0.38784     0.31767    
 0.25933     0.20821     0.16232     0.12189     0.88049E-01 0.61567E-01 0.42297E-01 0.29315E-01 0.21375E-01 0.17219E-01
 0.15605E-01 0.15308E-01 0.15340E-01 0.15308E-01 0.15605E-01 0.17219E-01 0.21375E-01 0.29315E-01 0.42297E-01 0.61567E-01
 0.88049E-01 0.12189     0.16232     0.20821     0.25933     0.31767     0.38784     0.47553     0.58439     0.71283    
 0.85331     0.99488      1.1270      1.2419      1.3340      1.3987      1.4318      1.4306      1.3939      1.3219    
  1.2180      1.0928     0.96847     0.87520     0.57086E-01 0.11882     0.28101     0.48730     0.67722     0.81244    
 0.88520     0.90873     0.90106     0.87412     0.83231     0.77656     0.70826     0.63065     0.54860     0.46799    
 0.39454     0.33183     0.27969     0.23468     0.19290     0.15279     0.11572     0.84193E-01 0.59774E-01 0.42297E-01
 0.30452E-01 0.22677E-01 0.17651E-01 0.14419E-01 0.12383E-01 0.11234E-01 0.10859E-01 0.11234E-01 0.12383E-01 0.14419E-01
 0.17651E-01 0.22677E-01 0.30452E-01 0.42297E-01 0.59774E-01 0.84193E-01 0.11572     0.15279     0.19290     0.23468    
 0.27969     0.33183     0.39454     0.46799     0.54860     0.63065     0.70826     0.77656     0.83231     0.87412    
 0.90106     0.90873     0.88520     0.81244     0.67722     0.48730     0.28101     0.11882     0.64914     0.64338    
 0.62805     0.60850     0.59151     0.58209     0.58048     0.58181     0.57887     0.56613     0.54196     0.50815    
 0.46758     0.42260     0.37505     0.32719     0.28194     0.24149     0.20571     0.17233     0.13932     0.10704    
 0.78137E-01 0.55369E-01 0.39526E-01 0.29315E-01 0.22677E-01 0.17982E-01 0.14321E-01 0.11281E-01 0.87888E-02 0.70597E-02
 0.64293E-02 0.70597E-02 0.87888E-02 0.11281E-01 0.14321E-01 0.17982E-01 0.22677E-01 0.29315E-01 0.39526E-01 0.55369E-01
 0.78137E-01 0.10704     0.13932     0.17233     0.20571     0.24149     0.28194     0.32719     0.37505     0.42260    
 0.46758     0.50815     0.54196     0.56613     0.57887     0.58181     0.58048     0.58209     0.59151     0.60850    
 0.62805     0.64338      1.0269     0.97731     0.84752     0.68454     0.53938     0.44386     0.40114     0.39292    
 0.39536     0.39237     0.37922     0.35819     0.33247     0.30351     0.27188     0.23899     0.20701     0.17740    
 0.14987     0.12314     0.96697E-01 0.71899E-01 0.51163E-01 0.36206E-01 0.26862E-01 0.21375E-01 0.17651E-01 0.14321E-01
 0.10998E-01 0.79091E-02 0.54333E-02 0.38532E-02 0.33128E-02 0.38532E-02 0.54333E-02 0.79091E-02 0.10998E-01 0.14321E-01
 0.17651E-01 0.21375E-01 0.26862E-01 0.36206E-01 0.51163E-01 0.71899E-01 0.96697E-01 0.12314     0.14987     0.17740    
 0.20701     0.23899     0.27188     0.30351     0.33247     0.35819     0.37922     0.39237     0.39536     0.39292    
 0.40114     0.44386     0.53938     0.68454     0.84752     0.97731     0.18995     0.19584     0.21176     0.23319    
 0.25470     0.27193     0.28280     0.28731     0.28656     0.28162     0.27296     0.26037     0.24335     0.22201    
 0.19766     0.17262     0.14895     0.12723     0.10662     0.86222E-01 0.66398E-01 0.48773E-01 0.35075E-01 0.25924E-01
 0.20522E-01 0.17219E-01 0.14419E-01 0.11281E-01 0.79091E-02 0.49828E-02 0.30764E-02 0.22063E-02 0.19919E-02 0.22063E-02
 0.30764E-02 0.49828E-02 0.79091E-02 0.11281E-01 0.14419E-01 0.17219E-01 0.20522E-01 0.25924E-01 0.35075E-01 0.48773E-01
 0.66398E-01 0.86222E-01 0.10662     0.12723     0.14895     0.17262     0.19766     0.22201     0.24335     0.26037    
 0.27296     0.28162     0.28656     0.28731     0.28280     0.27193     0.25470     0.23319     0.21176     0.19584    
 -.45994     -.40959     -.27732     -.10948     0.43364E-01 0.14871     0.20087     0.21445     0.20991     0.20165    
 0.19425     0.18585     0.17365     0.15721     0.13851     0.12015     0.10366     0.89006E-01 0.75176E-01 0.61414E-01
 0.48069E-01 0.36440E-01 0.27738E-01 0.22107E-01 0.18533E-01 0.15605E-01 0.12383E-01 0.87888E-02 0.54333E-02 0.30764E-02
 0.20325E-02 0.19157E-02 0.19980E-02 0.19157E-02 0.20325E-02 0.30764E-02 0.54333E-02 0.87888E-02 0.12383E-01 0.15605E-01
 0.18533E-01 0.22107E-01 0.27738E-01 0.36440E-01 0.48069E-01 0.61414E-01 0.75176E-01 0.89006E-01 0.10366     0.12015    
 0.13851     0.15721     0.17365     0.18585     0.19425     0.20165     0.20991     0.21445     0.20087     0.14871    
 0.43364E-01 -.10948     -.27732     -.40959     0.16164     0.15978     0.15525     0.15068     0.14886     0.15065    
 0.15413     0.15616     0.15489     0.15057     0.14410     0.13561     0.12472     0.11182     0.98254E-01 0.85532E-01
 0.74404E-01 0.64765E-01 0.55993E-01 0.47444E-01 0.39012E-01 0.31393E-01 0.25532E-01 0.21595E-01 0.18614E-01 0.15308E-01
 0.11234E-01 0.70597E-02 0.38532E-02 0.22063E-02 0.19157E-02 0.22494E-02 0.24629E-02 0.22494E-02 0.19157E-02 0.22063E-02
 0.38532E-02 0.70597E-02 0.11234E-01 0.15308E-01 0.18614E-01 0.21595E-01 0.25532E-01 0.31393E-01 0.39012E-01 0.47444E-01
 0.55993E-01 0.64765E-01 0.74404E-01 0.85532E-01 0.98254E-01 0.11182     0.12472     0.13561     0.14410     0.15057    
 0.15489     0.15616     0.15413     0.15065     0.14886     0.15068     0.15525     0.15978     0.76398     0.71381    
 0.58276     0.41897     0.27450     0.18092     0.13973     0.13147     0.13361     0.13307     0.12716     0.11778    
 0.10681     0.95256E-01 0.83902E-01 0.73466E-01 0.64325E-01 0.56464E-01 0.49536E-01 0.42958E-01 0.36373E-01 0.30174E-01
 0.25221E-01 0.21763E-01 0.18886E-01 0.15340E-01 0.10859E-01 0.64293E-02 0.33128E-02 0.19919E-02 0.19980E-02 0.24629E-02
 0.26995E-02 0.24629E-02 0.19980E-02 0.19919E-02 0.33128E-02 0.64293E-02 0.10859E-01 0.15340E-01 0.18886E-01 0.21763E-01
 0.25221E-01 0.30174E-01 0.36373E-01 0.42958E-01 0.49536E-01 0.56464E-01 0.64325E-01 0.73466E-01 0.83902E-01 0.95256E-01
 0.10681     0.11778     0.12716     0.13307     0.13361     0.13147     0.13973     0.18092     0.27450     0.41897    
 0.58276     0.71381     0.16164     0.15978     0.15525     0.15068     0.14886     0.15065     0.15413     0.15616    
 0.15489     0.15057     0.14410     0.13561     0.12472     0.11182     0.98254E-01 0.85532E-01 0.74404E-01 0.64765E-01
 0.55993E-01 0.47444E-01 0.39012E-01 0.31393E-01 0.25532E-01 0.21595E-01 0.18614E-01 0.15308E-01 0.11234E-01 0.70597E-02
 0.38532E-02 0.22063E-02 0.19157E-02 0.22494E-02 0.24629E-02 0.22494E-02 0.19157E-02 0.22063E-02 0.38532E-02 0.70597E-02
 0.11234E-01 0.15308E-01 0.18614E-01 0.21595E-01 0.25532E-01 0.31393E-01 0.39012E-01 0.47444E-01 0.55993E-01 0.64765E-01
 0.74404E-01 0.85532E-01 0.98254E-01 0.11182     0.12472     0.13561     0.14410     0.15057     0.15489     0.15616    
 0.15413     0.15065     0.14886     0.15068     0.15525     0.15978     -.45994     -.40959     -.27732     -.10948    
 0.43364E-01 0.14871     0.20087     0.21445     0.20991     0.20165     0.19425     0.18585     0.17365     0.15721    
 0.13851     0.12015     0.10366     0.89006E-01 0.75176E-01 0.61414E-01 0.48069E-01 0.36440E-01 0.27738E-01 0.22107E-01
 0.18533E-01 0.15605E-01 0.12383E-01 0.87888E-02 0.54333E-02 0.30764E-02 0.20325E-02 0.19157E-02 0.19980E-02 0.19157E-02
 0.20325E-02 0.30764E-02 0.54333E-02 0.87888E-02 0.12383E-01 0.15605E-01 0.18533E-01 0.22107E-01 0.27738E-01 0.36440E-01
 0.48069E-01 0.61414E-01 0.75176E-01 0.89006E-01 0.10366     0.12015     0.13851     0.15721     0.17365     0.18585    
 0.19425     0.20165     0.20991     0.21445     0.20087     0.14871     0.43364E-01 -.10948     -.27732     -.40959    
 0.18995     0.19584     0.21176     0.23319     0.25470     0.27193     0.28280     0.28731     0.28656     0.28162    
 0.27296     0.26037     0.24335     0.22201     0.19766     0.17262     0.14895     0.12723     0.10662     0.86222E-01
 0.66398E-01 0.48773E-01 0.35075E-01 0.25924E-01 0.20522E-01 0.17219E-01 0.14419E-01 0.11281E-01 0.79091E-02 0.49828E-02
 0.30764E-02 0.22063E-02 0.19919E-02 0.22063E-02 0.30764E-02 0.49828E-02 0.79091E-02 0.11281E-01 0.14419E-01 0.17219E-01
 0.20522E-01 0.25924E-01 0.35075E-01 0.48773E-01 0.66398E-01 0.86222E-01 0.10662     0.12723     0.14895     0.17262    
 0.19766     0.22201     0.24335     0.26037     0.27296     0.28162     0.28656     0.28731     0.28280     0.27193    
 0.25470     0.23319     0.21176     0.19584      1.0269     0.97731     0.84752     0.68454     0.53938     0.44386    
 0.40114     0.39292     0.39536     0.39237     0.37922     0.35819     0.33247     0.30351     0.27188     0.23899    
 0.20701     0.17740     0.14987     0.12314     0.96697E-01 0.71899E-01 0.51163E-01 0.36206E-01 0.26862E-01 0.21375E-01
 0.17651E-01 0.14321E-01 0.10998E-01 0.79091E-02 0.54333E-02 0.38532E-02 0.33128E-02 0.38532E-02 0.54333E-02 0.79091E-02
 0.10998E-01 0.14321E-01 0.17651E-01 0.21375E-01 0.26862E-01 0.36206E-01 0.51163E-01 0.71899E-01 0.96697E-01 0.12314    
 0.14987     0.17740     0.20701     0.23899     0.27188     0.30351     0.33247     0.35819     0.37922     0.39237    
 0.39536     0.39292     0.40114     0.44386     0.53938     0.68454     0.84752     0.97731     0.64914     0.64338    
 0.62805     0.60850     0.59151     0.58209     0.58048     0.58181     0.57887     0.56613     0.54196     0.50815    
 0.46758     0.42260     0.37505     0.32719     0.28194     0.24149     0.20571     0.17233     0.13932     0.10704    
 0.78137E-01 0.55369E-01 0.39526E-01 0.29315E-01 0.22677E-01 0.17982E-01 0.14321E-01 0.11281E-01 0.87888E-02 0.70597E-02
 0.64293E-02 0.70597E-02 0.87888E-02 0.11281E-01 0.14321E-01 0.17982E-01 0.22677E-01 0.29315E-01 0.39526E-01 0.55369E-01
 0.78137E-01 0.10704     0.13932     0.17233     0.20571     0.24149     0.28194     0.32719     0.37505     0.42260    
 0.46758     0.50815     0.54196     0.56613     0.57887     0.58181     0.58048     0.58209     0.59151     0.60850    
 0.62805     0.64338     0.57086E-01 0.11882     0.28101     0.48730     0.67722     0.81244     0.88520     0.90873    