   5   5   0   0
  0.1024000E+03  0.8000000E-09  0.8000000E-09  0.8000000E-09  0.5000000E-15
  1.000000000000000E-004
  CAR 
 unknown system                          
      2.29055104    -25.07591715  301     -5.00681748      1.00000000
    -25.076  0.0000E+00  0.0000E+00
    -24.985  0.0000E+00  0.0000E+00
    -24.893  0.0000E+00  0.0000E+00
    -24.802  0.0000E+00  0.0000E+00
    -24.711  0.0000E+00  0.0000E+00
    -24.620  0.0000E+00  0.0000E+00
    -24.529  0.0000E+00  0.0000E+00
    -24.437  0.0000E+00  0.0000E+00
    -24.346  0.0000E+00  0.0000E+00
    -24.255  0.1217E-15  0.1110E-16
    -24.164  0.1582E-13  0.1454E-14
    -24.072  0.1992E-11  0.1831E-12
    -23.981  0.1664E-09  0.1536E-10
    -23.890  0.9235E-08  0.8578E-09
    -23.799  0.3407E-06  0.3193E-07
    -23.708  0.8361E-05  0.7946E-06
    -23.616  0.1366E-03  0.1326E-04
    -23.525  0.1488E-02  0.1490E-03
    -23.434  0.1082E-01  0.1136E-02
    -23.343  0.5248E-01  0.5923E-02
    -23.251  0.1701E+00  0.2144E-01
    -23.160  0.3688E+00  0.5509E-01
    -23.069  0.5348E+00  0.1039E+00
    -22.978  0.5189E+00  0.1512E+00
    -22.887  0.3368E+00  0.1819E+00
    -22.795  0.1462E+00  0.1953E+00
    -22.704  0.4244E-01  0.1991E+00
    -22.613  0.8231E-02  0.1999E+00
    -22.522  0.1066E-02  0.2000E+00
    -22.430  0.9204E-04  0.2000E+00
    -22.339  0.5298E-05  0.2000E+00
    -22.248  0.2030E-06  0.2000E+00
    -22.157  0.5175E-08  0.2000E+00
    -22.066  0.8767E-10  0.2000E+00
    -21.974  0.9866E-12  0.2000E+00
    -21.883  0.7302E-14  0.2000E+00
    -21.792  0.0000E+00  0.2000E+00
    -21.701  0.0000E+00  0.2000E+00
    -21.609  0.0000E+00  0.2000E+00
    -21.518  0.0000E+00  0.2000E+00
    -21.427  0.0000E+00  0.2000E+00
    -21.336  0.0000E+00  0.2000E+00
    -21.245  0.0000E+00  0.2000E+00
    -21.153  0.0000E+00  0.2000E+00
    -21.062  0.0000E+00  0.2000E+00
    -20.971  0.1424E-13  0.2000E+00
    -20.880  0.1948E-11  0.2000E+00
    -20.789  0.1796E-09  0.2000E+00
    -20.697  0.1099E-07  0.2000E+00
    -20.606  0.4470E-06  0.2000E+00
    -20.515  0.1210E-04  0.2000E+00
    -20.424  0.2179E-03  0.2000E+00
    -20.332  0.2615E-02  0.2003E+00
    -20.241  0.2094E-01  0.2022E+00
    -20.150  0.1119E+00  0.2124E+00
    -20.059  0.3995E+00  0.2488E+00
    -19.968  0.9537E+00  0.3358E+00
    -19.876  0.1523E+01  0.4747E+00
    -19.785  0.1626E+01  0.6231E+00
    -19.694  0.1162E+01  0.7291E+00
    -19.603  0.5557E+00  0.7798E+00
    -19.511  0.1776E+00  0.7960E+00
    -19.420  0.3794E-01  0.7995E+00
    -19.329  0.5412E-02  0.7999E+00
    -19.238  0.5151E-03  0.8000E+00
    -19.147  0.3267E-04  0.8000E+00
    -19.055  0.1380E-05  0.8000E+00
    -18.964  0.3880E-07  0.8000E+00
    -18.873  0.7249E-09  0.8000E+00
    -18.782  0.8997E-11  0.8000E+00
    -18.690  0.7448E-13  0.8000E+00
    -18.599  0.0000E+00  0.8000E+00
    -18.508  0.0000E+00  0.8000E+00
    -18.417  0.0000E+00  0.8000E+00
    -18.326  0.0000E+00  0.8000E+00
    -18.234  0.0000E+00  0.8000E+00
    -18.143  0.0000E+00  0.8000E+00
    -18.052  0.0000E+00  0.8000E+00
    -17.961  0.0000E+00  0.8000E+00
    -17.869  0.0000E+00  0.8000E+00
    -17.778  0.0000E+00  0.8000E+00
    -17.687  0.0000E+00  0.8000E+00
    -17.596  0.0000E+00  0.8000E+00
    -17.505  0.0000E+00  0.8000E+00
    -17.413  0.0000E+00  0.8000E+00
    -17.322  0.0000E+00  0.8000E+00
    -17.231  0.0000E+00  0.8000E+00
    -17.140  0.0000E+00  0.8000E+00
    -17.048  0.0000E+00  0.8000E+00
    -16.957  0.0000E+00  0.8000E+00
    -16.866  0.0000E+00  0.8000E+00
    -16.775  0.0000E+00  0.8000E+00
    -16.684  0.0000E+00  0.8000E+00
    -16.592  0.0000E+00  0.8000E+00
    -16.501  0.0000E+00  0.8000E+00
    -16.410  0.0000E+00  0.8000E+00
    -16.319  0.0000E+00  0.8000E+00
    -16.227  0.0000E+00  0.8000E+00
    -16.136  0.0000E+00  0.8000E+00
    -16.045  0.0000E+00  0.8000E+00
    -15.954  0.0000E+00  0.8000E+00
    -15.863  0.0000E+00  0.8000E+00
    -15.771  0.0000E+00  0.8000E+00
    -15.680  0.0000E+00  0.8000E+00
    -15.589  0.0000E+00  0.8000E+00
    -15.498  0.0000E+00  0.8000E+00
    -15.406  0.3651E-15  0.8000E+00
    -15.315  0.7083E-13  0.8000E+00
    -15.224  0.7877E-11  0.8000E+00
    -15.133  0.5818E-09  0.8000E+00
    -15.042  0.2855E-07  0.8000E+00
    -14.950  0.9316E-06  0.8000E+00
    -14.859  0.2023E-04  0.8000E+00
    -14.768  0.2926E-03  0.8000E+00
    -14.677  0.2821E-02  0.8003E+00
    -14.585  0.1815E-01  0.8019E+00
    -14.494  0.7801E-01  0.8091E+00
    -14.403  0.2240E+00  0.8295E+00
    -14.312  0.4303E+00  0.8687E+00
    -14.221  0.5529E+00  0.9192E+00
    -14.129  0.4753E+00  0.9625E+00
    -14.038  0.2733E+00  0.9875E+00
    -13.947  0.1051E+00  0.9971E+00
    -13.856  0.2703E-01  0.9995E+00
    -13.764  0.4642E-02  0.9999E+00
    -13.673  0.5322E-03  0.1000E+01
    -13.582  0.4068E-04  0.1000E+01
    -13.491  0.2072E-05  0.1000E+01
    -13.400  0.7023E-07  0.1000E+01
    -13.308  0.1583E-08  0.1000E+01
    -13.217  0.2372E-10  0.1000E+01
    -13.126  0.2361E-12  0.1000E+01
    -13.035  0.1460E-14  0.1000E+01
    -12.943  0.0000E+00  0.1000E+01
    -12.852  0.0000E+00  0.1000E+01
    -12.761  0.0000E+00  0.1000E+01
    -12.670  0.0000E+00  0.1000E+01
    -12.579  0.0000E+00  0.1000E+01
    -12.487  0.0000E+00  0.1000E+01
    -12.396  0.0000E+00  0.1000E+01
    -12.305  0.0000E+00  0.1000E+01
    -12.214  0.0000E+00  0.1000E+01
    -12.122  0.3651E-15  0.1000E+01
    -12.031  0.9311E-13  0.1000E+01
    -11.940  0.1108E-10  0.1000E+01
    -11.849  0.8765E-09  0.1000E+01
    -11.758  0.4605E-07  0.1000E+01
    -11.666  0.1608E-05  0.1000E+01
    -11.575  0.3737E-04  0.1000E+01
    -11.484  0.5783E-03  0.1000E+01
    -11.393  0.5966E-02  0.1001E+01
    -11.301  0.4106E-01  0.1004E+01
    -11.210  0.1887E+00  0.1022E+01
    -11.119  0.5797E+00  0.1074E+01
    -11.028  0.1191E+01  0.1183E+01
    -10.937  0.1636E+01  0.1332E+01
    -10.845  0.1504E+01  0.1469E+01
    -10.754  0.9247E+00  0.1554E+01
    -10.663  0.3804E+00  0.1588E+01
    -10.572  0.1046E+00  0.1598E+01
    -10.480  0.1921E-01  0.1600E+01
    -10.389  0.2356E-02  0.1600E+01
    -10.298  0.1927E-03  0.1600E+01
    -10.207  0.1050E-04  0.1600E+01
    -10.116  0.3810E-06  0.1600E+01
    -10.024  0.9195E-08  0.1600E+01
     -9.933  0.1475E-09  0.1600E+01
     -9.842  0.1570E-11  0.1600E+01
     -9.751  0.1168E-13  0.1600E+01
     -9.659  0.0000E+00  0.1600E+01
     -9.568  0.0000E+00  0.1600E+01
     -9.477  0.0000E+00  0.1600E+01
     -9.386  0.0000E+00  0.1600E+01
     -9.295  0.0000E+00  0.1600E+01
     -9.203  0.0000E+00  0.1600E+01
     -9.112  0.0000E+00  0.1600E+01
     -9.021  0.0000E+00  0.1600E+01
     -8.930  0.0000E+00  0.1600E+01
     -8.838  0.0000E+00  0.1600E+01
     -8.747  0.2434E-15  0.1600E+01
     -8.656  0.3067E-13  0.1600E+01
     -8.565  0.3874E-11  0.1600E+01
     -8.474  0.3245E-09  0.1600E+01
     -8.382  0.1805E-07  0.1600E+01
     -8.291  0.6675E-06  0.1600E+01
     -8.200  0.1642E-04  0.1600E+01
     -8.109  0.2691E-03  0.1600E+01
     -8.017  0.2938E-02  0.1600E+01
     -7.926  0.2140E-01  0.1602E+01
     -7.835  0.1041E+00  0.1612E+01
     -7.744  0.3383E+00  0.1643E+01
     -7.653  0.7351E+00  0.1710E+01
     -7.561  0.1069E+01  0.1807E+01
     -7.470  0.1040E+01  0.1902E+01
     -7.379  0.6827E+00  0.1964E+01
     -7.288  0.3385E+00  0.1995E+01
     -7.196  0.2853E+00  0.2021E+01
     -7.105  0.6194E+00  0.2078E+01
     -7.014  0.1219E+01  0.2189E+01
     -6.923  0.1643E+01  0.2339E+01
     -6.832  0.1485E+01  0.2474E+01
     -6.740  0.8976E+00  0.2556E+01
     -6.649  0.3629E+00  0.2589E+01
     -6.558  0.9862E-01  0.2598E+01
     -6.467  0.2329E-01  0.2600E+01
     -6.375  0.4103E-01  0.2604E+01
     -6.284  0.1812E+00  0.2621E+01
     -6.193  0.5631E+00  0.2672E+01
     -6.102  0.1171E+01  0.2779E+01
     -6.011  0.1629E+01  0.2927E+01
     -5.919  0.1517E+01  0.3066E+01
     -5.828  0.9446E+00  0.3152E+01
     -5.737  0.3935E+00  0.3188E+01
     -5.646  0.1096E+00  0.3198E+01
     -5.555  0.2039E-01  0.3200E+01
     -5.463  0.2532E-02  0.3200E+01
     -5.372  0.2097E-03  0.3200E+01
     -5.281  0.1158E-04  0.3200E+01
     -5.190  0.4254E-06  0.3200E+01
     -5.098  0.1040E-07  0.3200E+01
     -5.007  0.1689E-09  0.3200E+01
     -4.916  0.1822E-11  0.3200E+01
     -4.825  0.1314E-13  0.3200E+01
     -4.734  0.0000E+00  0.3200E+01
     -4.642  0.0000E+00  0.3200E+01
     -4.551  0.0000E+00  0.3200E+01
     -4.460  0.0000E+00  0.3200E+01
     -4.369  0.0000E+00  0.3200E+01
     -4.277  0.0000E+00  0.3200E+01
     -4.186  0.0000E+00  0.3200E+01
     -4.095  0.0000E+00  0.3200E+01
     -4.004  0.0000E+00  0.3200E+01
     -3.913  0.0000E+00  0.3200E+01
     -3.821  0.0000E+00  0.3200E+01
     -3.730  0.0000E+00  0.3200E+01
     -3.639  0.0000E+00  0.3200E+01
     -3.548  0.0000E+00  0.3200E+01
     -3.456  0.0000E+00  0.3200E+01
     -3.365  0.0000E+00  0.3200E+01
     -3.274  0.0000E+00  0.3200E+01
     -3.183  0.0000E+00  0.3200E+01
     -3.092  0.0000E+00  0.3200E+01
     -3.000  0.0000E+00  0.3200E+01
     -2.909  0.0000E+00  0.3200E+01
     -2.818  0.0000E+00  0.3200E+01
     -2.727  0.0000E+00  0.3200E+01
     -2.635  0.0000E+00  0.3200E+01
     -2.544  0.0000E+00  0.3200E+01
     -2.453  0.0000E+00  0.3200E+01
     -2.362  0.5842E-14  0.3200E+01
     -2.271  0.7910E-12  0.3200E+01
     -2.179  0.7166E-10  0.3200E+01
     -2.088  0.4312E-08  0.3200E+01
     -1.997  0.1724E-06  0.3200E+01
     -1.906  0.4586E-05  0.3200E+01
     -1.814  0.8122E-04  0.3200E+01
     -1.723  0.9586E-03  0.3200E+01
     -1.632  0.7546E-02  0.3201E+01
     -1.541  0.3965E-01  0.3204E+01
     -1.450  0.1392E+00  0.3217E+01
     -1.358  0.3268E+00  0.3247E+01
     -1.267  0.5130E+00  0.3294E+01
     -1.176  0.5389E+00  0.3343E+01
     -1.085  0.3787E+00  0.3377E+01
     -0.993  0.1780E+00  0.3394E+01
     -0.902  0.5596E-01  0.3399E+01
     -0.811  0.1175E-01  0.3400E+01
     -0.720  0.1649E-02  0.3400E+01
     -0.629  0.1543E-03  0.3400E+01
     -0.537  0.9636E-05  0.3400E+01
     -0.446  0.1009E-05  0.3400E+01
     -0.355  0.1591E-04  0.3400E+01
     -0.264  0.2762E-03  0.3400E+01
     -0.172  0.3198E-02  0.3400E+01
     -0.081  0.2470E-01  0.3403E+01
      0.010  0.1273E+00  0.3414E+01
      0.101  0.4387E+00  0.3454E+01
      0.192  0.1010E+01  0.3546E+01
      0.284  0.1557E+01  0.3688E+01
      0.375  0.1604E+01  0.3835E+01
      0.466  0.1106E+01  0.3936E+01
      0.557  0.5104E+00  0.3982E+01
      0.649  0.1574E+00  0.3997E+01
      0.740  0.3245E-01  0.4000E+01
      0.831  0.4465E-02  0.4000E+01
      0.922  0.4099E-03  0.4000E+01
      1.013  0.2508E-04  0.4000E+01
      1.105  0.1022E-05  0.4000E+01
      1.196  0.2770E-07  0.4000E+01
      1.287  0.4991E-09  0.4000E+01
      1.378  0.5973E-11  0.4000E+01
      1.470  0.4820E-13  0.4000E+01
      1.561  0.0000E+00  0.4000E+01
      1.652  0.0000E+00  0.4000E+01
      1.743  0.0000E+00  0.4000E+01
      1.834  0.0000E+00  0.4000E+01
      1.926  0.0000E+00  0.4000E+01
      2.017  0.0000E+00  0.4000E+01
      2.108  0.0000E+00  0.4000E+01
      2.199  0.0000E+00  0.4000E+01
      2.291  0.0000E+00  0.4000E+01
