    5    5   10    1
  0.1024000E+03  0.8000000E-09  0.8000000E-09  0.8000000E-09  0.5000000E-15
  1.000000000000000E-004
  CAR 
 unknown system                          
   32    1   20
 
  0.0000000E+00  0.0000000E+00  0.0000000E+00  0.1000000E+01
   1      -23.075917
   2      -19.861317
   3      -19.861317
   4      -19.861317
   5      -14.254881
   6      -10.955696
   7      -10.955696
   8      -10.955696
   9       -7.567703
  10       -7.567703
  11       -6.945851
  12       -6.945851
  13       -6.945851
  14       -6.026874
  15       -6.026874
  16       -6.026874
  17       -1.255930
  18        0.290545
  19        0.290545
  20        0.290551
