 vasp.5.2.12 11Nov11 complex                                                    
  
 executed on             LinuxIFC date 2012.10.31  21:35:03
 running on    1 nodes
 distr:  one band on    1 nodes,    1 groups


--------------------------------------------------------------------------------------------------------


 INCAR:
 POTCAR:   PAW_PBE C 08Apr2002                    
 POTCAR:    PAW_PBE Cl 17Jan2003                  
 POTCAR:   PAW_PBE C 08Apr2002                    
   VRHFIN =C: s2p2                                                              
   LEXCH  = PE                                                                  
   EATOM  =   147.1560 eV,   10.8157 Ry                                         
                                                                                
   TITEL  = PAW_PBE C 08Apr2002                                                 
   LULTRA =        F    use ultrasoft PP ?                                      
   IUNSCR =        0    unscreen: 0-lin 1-nonlin 2-no                           
   RPACOR =     .000    partial core radius                                     
   POMASS =   12.011; ZVAL   =    4.000    mass and valenz                      
   RCORE  =    1.500    outmost cutoff radius                                   
   RWIGS  =    1.630; RWIGS  =     .863    wigner-seitz radius (au A)           
   ENMAX  =  400.000; ENMIN  =  300.000 eV                                      
   ICORE  =        2    local potential                                         
   LCOR   =        T    correct aug charges                                     
   LPAW   =        T    paw PP                                                  
   EAUG   =  644.873                                                            
   DEXC   =     .000                                                            
   RMAX   =    2.266    core radius for proj-oper                               
   RAUG   =    1.300    factor for augmentation sphere                          
   RDEP   =    1.501    radius for radial grids                                 
   RDEPT  =    1.300    core radius for aug-charge                              
   QCUT   =   -5.516; QGAM   =   11.032    optimization parameters              
                                                                                
   Description                                                                  
     l     E      TYP  RCUT    TYP  RCUT                                        
     0   .000     23  1.200                                                     
     0   .000     23  1.200                                                     
     1   .000     23  1.500                                                     
     1  2.500     23  1.500                                                     
     2   .000      7  1.500                                                     
  local pseudopotential read in
  atomic valenz-charges read in
  non local Contribution for L=           0  read in
    real space projection operators read in
  non local Contribution for L=           0  read in
    real space projection operators read in
  non local Contribution for L=           1  read in
    real space projection operators read in
  non local Contribution for L=           1  read in
    real space projection operators read in
    PAW grid and wavefunctions read in
 
   number of l-projection  operators is LMAX  =           4
   number of lm-projection operators is LMMAX =           8
 
 POTCAR:    PAW_PBE Cl 17Jan2003                  
   VRHFIN =Cl: s2p5                                                             
   LEXCH  = PE                                                                  
   EATOM  =   409.7259 eV,   30.1140 Ry                                         
                                                                                
   TITEL  = PAW_PBE Cl 17Jan2003                                                
   LULTRA =        F    use ultrasoft PP ?                                      
   IUNSCR =        1    unscreen: 0-lin 1-nonlin 2-no                           
   RPACOR =    1.500    partial core radius                                     
   POMASS =   35.453; ZVAL   =    7.000    mass and valenz                      
   RCORE  =    1.900    outmost cutoff radius                                   
   RWIGS  =    2.100; RWIGS  =    1.111    wigner-seitz radius (au A)           
   ENMAX  =  280.000; ENMIN  =  196.854 eV                                      
   ICORE  =        2    local potential                                         
   LCOR   =        T    correct aug charges                                     
   LPAW   =        T    paw PP                                                  
   EAUG   =  356.192                                                            
   DEXC   =     .000                                                            
   RMAX   =    2.846    core radius for proj-oper                               
   RAUG   =    1.300    factor for augmentation sphere                          
   RDEP   =    2.020    radius for radial grids                                 
   QCUT   =   -4.392; QGAM   =    8.784    optimization parameters              
                                                                                
   Description                                                                  
     l     E      TYP  RCUT    TYP  RCUT                                        
     0   .000     23  1.900                                                     
     0   .000     23  1.900                                                     
     1   .000     23  1.900                                                     
     1   .000     23  1.900                                                     
     2   .000     23  1.900                                                     
  local pseudopotential read in
  partial core-charges read in
  atomic valenz-charges read in
  non local Contribution for L=           0  read in
    real space projection operators read in
  non local Contribution for L=           0  read in
    real space projection operators read in
  non local Contribution for L=           1  read in
    real space projection operators read in
  non local Contribution for L=           1  read in
    real space projection operators read in
    PAW grid and wavefunctions read in
 
   number of l-projection  operators is LMAX  =           4
   number of lm-projection operators is LMMAX =           8
 
 PAW_PBE C 08Apr2002                    :
 energy of atom  1       EATOM= -147.1560
 kinetic energy error for atom=    0.6876 (will be added to EATOM!!)
  PAW_PBE Cl 17Jan2003                  :
 energy of atom  2       EATOM= -409.7259
 kinetic energy error for atom=    0.0777 (will be added to EATOM!!)
 
 
 POSCAR:  C Cl                                   
  positions in cartesian coordinates
  No initial velocities read in
 exchange correlation table for  LEXCH =        8
   RHO(1)=    0.500       N(1)  =     2000
   RHO(2)=  100.500       N(2)  =     4000
 


--------------------------------------------------------------------------------------------------------


 ion  position               nearest neighbor table
   1  0.000  0.000  0.000-   2 1.77   3 1.77   4 1.77   5 1.77
   2  0.128  0.128  0.128-   1 1.77
   3  0.872  0.872  0.128-   1 1.77
   4  0.872  0.128  0.872-   1 1.77
   5  0.128  0.872  0.872-   1 1.77
 
  LATTYP: Found a simple cubic cell.
 ALAT       =     8.0000000000
  
  Lattice vectors:
  
 A1 = (   8.0000000000,   0.0000000000,   0.0000000000)
 A2 = (   0.0000000000,   8.0000000000,   0.0000000000)
 A3 = (   0.0000000000,   0.0000000000,   8.0000000000)
 Subroutine PRICEL returns:
 Original cell was already a primitive cell.
 

Analysis of symmetry for initial positions (statically):

 Routine SETGRP: Setting up the symmetry group for a 
 simple cubic supercell.


 Subroutine GETGRP returns: Found 24 space group operations
 (whereof 24 operations were pure point group operations)
 out of a pool of 48 trial point group operations.


The static configuration has the point symmetry T_d .

Analysis of symmetry for dynamics (positions and initial velocities):

 Subroutine DYNSYM returns: Found 24 space group operations
 (whereof 24 operations were pure point group operations)
 out of a pool of 24 trial space group operations
 (whereof 24 operations were pure point group operations)
 and found also     1 'primitive' translations


The dynamic configuration has the point symmetry T_d .
 
 
 KPOINTS: KPOINTS created by Atomic Simulation Env

Automatic generation of k-mesh.
 
 Subroutine IBZKPT returns following result:
 ===========================================
 
 Found      1 irreducible k-points:
 
 Following reciprocal coordinates:
            Coordinates               Weight
  0.000000  0.000000  0.000000      1.000000
 
 Following cartesian coordinates:
            Coordinates               Weight
  0.000000  0.000000  0.000000      1.000000
 


--------------------------------------------------------------------------------------------------------




 Dimension of arrays:
   k-points           NKPTS =      1   k-points in BZ     NKDIM =      1   number of bands    NBANDS=     20
   number of dos      NEDOS =    301   number of ions     NIONS =      5
   non local maximal  LDIM  =      4   non local SUM 2l+1 LMDIM =      8
   total plane-waves  NPLWV =  32768
   max r-space proj   IRMAX =      1   max aug-charges    IRDMAX=   2039
   dimension x,y,z NGX =    32 NGY =   32 NGZ =   32
   dimension x,y,z NGXF=    64 NGYF=   64 NGZF=   64
   support grid    NGXF=    64 NGYF=   64 NGZF=   64
   ions per type =               1   4
 NGX,Y,Z   is equivalent  to a cutoff of   6.65,  6.65,  6.65 a.u.
 NGXF,Y,Z  is equivalent  to a cutoff of  13.30, 13.30, 13.30 a.u.


 I would recommend the setting:
   dimension x,y,z NGX =    31 NGY =   31 NGZ =   31
 SYSTEM =  unknown system                          
 POSCAR =   C Cl                                   

 Startparameter for this run:
   NWRITE =      2    write-flag & timer
   PREC   = normal    normal or accurate (medium, high low for compatibility)
   ISTART =      0    job   : 0-new  1-cont  2-samecut
   ICHARG =      2    charge: 1-file 2-atom 10-const
   ISPIN  =      1    spin polarized calculation?
   LNONCOLLINEAR =      F non collinear calculations
   LSORBIT =      F    spin-orbit coupling
   INIWAV =      1    electr: 0-lowe 1-rand  2-diag
   LASPH  =      F    aspherical Exc in radial PAW
   METAGGA=      F    non-selfconsistent MetaGGA calc.

 Electronic Relaxation 1
   ENCUT  =  250.0 eV  18.37 Ry    4.29 a.u.  10.31 10.31 10.31*2*pi/ulx,y,z
   ENINI  =  250.0     initial cutoff
   ENAUG  =  644.9 eV  augmentation charge cutoff
   NELM   =     60;   NELMIN=  2; NELMDL= -5     # of ELM steps 
   EDIFF  = 0.1E-03   stopping-criterion for ELM
   LREAL  =      F    real-space projection
   NLSPLINE    = F    spline interpolate recip. space projectors
   LCOMPAT=      F    compatible to vasp.4.4
   GGA_COMPAT  = T    GGA compatible to vasp.4.4-vasp.4.6
   LMAXPAW     = -100 max onsite density
   LMAXMIX     =    2 max onsite mixed and CHGCAR
   VOSKOWN=      0    Vosko Wilk Nusair interpolation
   ROPT   =    0.00000   0.00000
 Ionic relaxation
   EDIFFG = 0.1E-02   stopping-criterion for IOM
   NSW    =     10    number of steps for IOM
   NBLOCK =      1;   KBLOCK =     10    inner block; outer block 
   IBRION =      2    ionic relax: 0-MD 1-quasi-New 2-CG
   NFREE  =      1    steps in history (QN), initial steepest desc. (CG)
   ISIF   =      2    stress and relaxation
   IWAVPR =     11    prediction:  0-non 1-charg 2-wave 3-comb
   ISYM   =      2    0-nonsym 1-usesym 2-fastsym
   LCORR  =      T    Harris-Foulkes like correction to forces

   POTIM  = 0.5000    time-step for ionic-motion
   TEIN   =    0.0    initial temperature
   TEBEG  =    0.0;   TEEND  =   0.0 temperature during run
   SMASS  =  -3.00    Nose mass-parameter (am)
   estimated Nose-frequenzy (Omega)   =  0.10E-29 period in steps =****** mass=  -0.146E-26a.u.
   SCALEE = 1.0000    scale energy and forces
   NPACO  =    256;   APACO  = 16.0  distance and # of slots for P.C.
   PSTRESS=    0.0 pullay stress

  Mass of Ions in am
   POMASS =  12.01 35.45
  Ionic Valenz
   ZVAL   =   4.00  7.00
  Atomic Wigner-Seitz radii
   RWIGS  =  -1.00 -1.00
  virtual crystal weights 
   VCA    =   1.00  1.00
   NELECT =      32.0000    total number of electrons
   NUPDOWN=      -1.0000    fix difference up-down

 DOS related values:
   EMIN   =  10.00;   EMAX   =-10.00  energy-range for DOS
   EFERMI =   0.00
   ISMEAR =     0;   SIGMA  =   0.20  broadening in eV -4-tet -1-fermi 0-gaus

 Electronic relaxation 2 (details)
   IALGO  =     38    algorithm
   LDIAG  =      T    sub-space diagonalisation (order eigenvalues)
   LSUBROT=      T    optimize rotation matrix (better conditioning)
   TURBO    =      0    0=normal 1=particle mesh
   IRESTART =      0    0=no restart 2=restart with 2 vectors
   NREBOOT  =      0    no. of reboots
   NMIN     =      0    reboot dimension
   EREF     =   0.00    reference energy to select bands
   IMIX   =      4    mixing-type and parameters
     AMIX     =   0.40;   BMIX     =  1.00
     AMIX_MAG =   1.60;   BMIX_MAG =  1.00
     AMIN     =   0.10
     WC   =   100.;   INIMIX=   1;  MIXPRE=   1

 Intra band minimization:
   WEIMIN = 0.0010     energy-eigenvalue tresh-hold
   EBREAK =  0.13E-05  absolut break condition
   DEPER  =   0.30     relativ break condition  

   TIME   =   0.40     timestep for ELM

  volume/ion in A,a.u.               =     102.40       691.03
  Fermi-wavevector in a.u.,A,eV,Ry     =   0.649683  1.227723  5.742856  0.422088
  Thomas-Fermi vector in A             =   1.718718
 
 Write flags
   LWAVE  =      T    write WAVECAR
   LCHARG =      T    write CHGCAR
   LVTOT  =      F    write LOCPOT, total local potential
   LVHAR  =      F    write LOCPOT, Hartree potential only
   LELF   =      F    write electronic localiz. function (ELF)
   LORBIT =      0    0 simple, 1 ext, 2 COOP (PROOUT)


 Dipole corrections
   LMONO  =      F    monopole corrections only (constant potential shift)
   LDIPOL =      F    correct potential (dipole corrections)
   IDIPOL =      0    1-x, 2-y, 3-z, 4-all directions 
   EPSILON=  1.0000000 bulk dielectric constant

 Exchange correlation treatment:
   GGA     =    --    GGA type
   LEXCH   =     8    internal setting for exchange type
   VOSKOWN=      0    Vosko Wilk Nusair interpolation
   LHFCALC =     F    Hartree Fock is set to
   LHFONE  =     F    Hartree Fock one center treatment
   AEXX    =    0.0000 exact exchange contribution

 Linear response parameters
   LEPSILON=     F    determine dielectric tensor
   LRPA    =     F    only Hartree local field effects (RPA)
   LNABLA  =     F    use nabla operator in PAW spheres
   LVEL    =     F    velocity operator in full k-point grid
   LINTERFAST=   F  fast interpolation
   KINTER  =     0    interpolate to denser k-point grid
   CSHIFT  =0.1000    complex shift for real part using Kramers Kronig
   OMEGAMAX=  -1.0    maximum frequency
   RTIME   =    0.100 relaxation time in fs

 Orbital magnetization related:
   ORBITALMAG=     F  switch on orbital magnetization
   LCHIMAG   =     F  perturbation theory with respect to B field
   DQ        =  0.001000  dq finite difference perturbation B field



--------------------------------------------------------------------------------------------------------


 conjugate gradient relaxation of ions
 charge density and potential will be updated during run
 non-spin polarized calculation
 Variant of blocked Davidson
 Davidson routine will perform the subspace rotation
 perform sub-space diagonalisation
    after iterative eigenvector-optimisation
 modified Broyden-mixing scheme, WC =      100.0
 initial mixing is a Kerker type mixing with AMIX =  0.4000 and BMIX =      1.0000
 Hartree-type preconditioning will be used
 using additional bands            4
 reciprocal scheme for non local part
 use partial core corrections
 calculate Harris-corrections to forces 
   (improved forces if not selfconsistent)
 use gradient corrections 
 use of overlap-Matrix (Vanderbilt PP)
 Gauss-broadening in eV      SIGMA  =   0.20


--------------------------------------------------------------------------------------------------------


  energy-cutoff  :      250.00
  volume of cell :      512.00
      direct lattice vectors                 reciprocal lattice vectors
     8.000000000  0.000000000  0.000000000     0.125000000  0.000000000  0.000000000
     0.000000000  8.000000000  0.000000000     0.000000000  0.125000000  0.000000000
     0.000000000  0.000000000  8.000000000     0.000000000  0.000000000  0.125000000

  length of vectors
     8.000000000  8.000000000  8.000000000     0.125000000  0.125000000  0.125000000


 
 k-points in units of 2pi/SCALE and weight: KPOINTS created by Atomic Simulation Env
   0.00000000  0.00000000  0.00000000       1.000
 
 k-points in reciprocal lattice and weights: KPOINTS created by Atomic Simulation Env
   0.00000000  0.00000000  0.00000000       1.000
 
 position of ions in fractional coordinates (direct lattice) 
   0.00000000  0.00000000  0.00000000
   0.12766750  0.12766750  0.12766750
   0.87233250  0.87233250  0.12766750
   0.87233250  0.12766750  0.87233250
   0.12766750  0.87233250  0.87233250
 
 position of ions in cartesian coordinates  (Angst):
   0.00000000  0.00000000  0.00000000
   1.02134000  1.02134000  1.02134000
   6.97866000  6.97866000  1.02134000
   6.97866000  1.02134000  6.97866000
   1.02134000  6.97866000  6.97866000
 


--------------------------------------------------------------------------------------------------------


 k-point  1 :  0.00000.00000.0000  plane waves:    4625

 maximum and minimum number of plane-waves per node :      4625     4625

 maximum number of plane-waves:      4625
 maximum index in each direction: 
   IXMAX=   10   IYMAX=   10   IZMAX=   10
   IXMIN=  -10   IYMIN=  -10   IZMIN=  -10

 WARNING: aliasing errors must be expected set NGX to  42 to avoid them
 WARNING: aliasing errors must be expected set NGY to  42 to avoid them
 WARNING: aliasing errors must be expected set NGZ to  42 to avoid them
 aliasing errors are usually negligible using standard VASP settings
 and one can safely disregard these warnings

 serial   3D FFT for wavefunctions
 parallel 3D FFT for charge:
    minimum data exchange during FFTs selected (reduces bandwidth)


 total amount of memory used by VASP on root node    58007. kBytes
========================================================================

   base      :      30000. kBytes
   nonl-proj :        962. kBytes
   fftplans  :       9204. kBytes
   grid      :      16334. kBytes
   one-center:         15. kBytes
   wavefun   :       1492. kBytes
 
 Broyden mixing: mesh for mixing (old mesh)
   NGX = 21   NGY = 21   NGZ = 21
  (NGX  = 64   NGY  = 64   NGZ  = 64)
  gives a total of   9261 points

 initial charge density was supplied:
 charge density of overlapping atoms calculated
 number of electron      32.0000000 magnetization 
 keeping initial charge density in first step


--------------------------------------------------------------------------------------------------------


 Maximum index for augmentation-charges         1791 (set IRDMAX)


--------------------------------------------------------------------------------------------------------


 First call to EWALD:  gamma=   0.222
 Maximum number of real-space cells 3x 3x 3
 Maximum number of reciprocal cells 3x 3x 3

    FEWALD:  cpu time    0.00: real time    0.00


----------------------------------------- Iteration    1(   1)  ---------------------------------------


    POTLOK:  cpu time    0.45: real time    0.45
    SETDIJ:  cpu time    0.01: real time    0.01
     EDDAV:  cpu time    0.55: real time    0.55
       DOS:  cpu time    0.00: real time    0.00
    --------------------------------------------
      LOOP:  cpu time    1.02: real time    1.03

 eigenvalue-minimisations  :    48
 total energy-change (2. order) : 0.2232803E+03  (-0.7643065E+03)
 number of electron      32.0000000 magnetization 
 augmentation part       32.0000000 magnetization 

 Free energy of the ion-electron system (eV)
  ---------------------------------------------------
  alpha Z        PSCENC =         8.81598031
  Ewald energy   TEWEN  =       -81.24181609
  -1/2 Hartree   DENC   =     -1444.11011371
  -exchange  EXHF       =         0.00000000
  -V(xc)+E(xc)   XCENC  =        93.81000607
  PAW double counting   =       831.83787413     -833.44360687
  entropy T*S    EENTRO =        -0.16386591
  eigenvalues    EBANDS =      -137.28524564
  atomic energy  EATOM  =      1785.06109253
  ---------------------------------------------------
  free energy    TOTEN  =       223.28030481 eV

  energy without entropy =      223.44417072  energy(sigma->0) =      223.36223776


--------------------------------------------------------------------------------------------------------




----------------------------------------- Iteration    1(   2)  ---------------------------------------


     EDDAV:  cpu time    0.70: real time    0.70
       DOS:  cpu time    0.00: real time    0.00
    --------------------------------------------
      LOOP:  cpu time    0.70: real time    0.71

 eigenvalue-minimisations  :    64
 total energy-change (2. order) :-0.2040788E+03  (-0.1976700E+03)
 number of electron      32.0000000 magnetization 
 augmentation part       32.0000000 magnetization 

 Free energy of the ion-electron system (eV)
  ---------------------------------------------------
  alpha Z        PSCENC =         8.81598031
  Ewald energy   TEWEN  =       -81.24181609
  -1/2 Hartree   DENC   =     -1444.11011371
  -exchange  EXHF       =         0.00000000
  -V(xc)+E(xc)   XCENC  =        93.81000607
  PAW double counting   =       831.83787413     -833.44360687
  entropy T*S    EENTRO =         0.00000000
  eigenvalues    EBANDS =      -341.52787308
  atomic energy  EATOM  =      1785.06109253
  ---------------------------------------------------
  free energy    TOTEN  =        19.20154328 eV

  energy without entropy =       19.20154328  energy(sigma->0) =       19.20154328


--------------------------------------------------------------------------------------------------------




----------------------------------------- Iteration    1(   3)  ---------------------------------------


     EDDAV:  cpu time    0.56: real time    0.56
       DOS:  cpu time    0.00: real time    0.00
    --------------------------------------------
      LOOP:  cpu time    0.56: real time    0.57

 eigenvalue-minimisations  :    48
 total energy-change (2. order) :-0.3606078E+02  (-0.3589644E+02)
 number of electron      32.0000000 magnetization 
 augmentation part       32.0000000 magnetization 

 Free energy of the ion-electron system (eV)
  ---------------------------------------------------
  alpha Z        PSCENC =         8.81598031
  Ewald energy   TEWEN  =       -81.24181609
  -1/2 Hartree   DENC   =     -1444.11011371
  -exchange  EXHF       =         0.00000000
  -V(xc)+E(xc)   XCENC  =        93.81000607
  PAW double counting   =       831.83787413     -833.44360687
  entropy T*S    EENTRO =         0.00000000
  eigenvalues    EBANDS =      -377.58865770
  atomic energy  EATOM  =      1785.06109253
  ---------------------------------------------------
  free energy    TOTEN  =       -16.85924134 eV

  energy without entropy =      -16.85924134  energy(sigma->0) =      -16.85924134


--------------------------------------------------------------------------------------------------------




----------------------------------------- Iteration    1(   4)  ---------------------------------------


     EDDAV:  cpu time    0.56: real time    0.56
       DOS:  cpu time    0.00: real time    0.00
    --------------------------------------------
      LOOP:  cpu time    0.56: real time    0.57

 eigenvalue-minimisations  :    48
 total energy-change (2. order) :-0.8679906E+00  (-0.8641434E+00)
 number of electron      32.0000000 magnetization 
 augmentation part       32.0000000 magnetization 

 Free energy of the ion-electron system (eV)
  ---------------------------------------------------
  alpha Z        PSCENC =         8.81598031
  Ewald energy   TEWEN  =       -81.24181609
  -1/2 Hartree   DENC   =     -1444.11011371
  -exchange  EXHF       =         0.00000000
  -V(xc)+E(xc)   XCENC  =        93.81000607
  PAW double counting   =       831.83787413     -833.44360687
  entropy T*S    EENTRO =         0.00000000
  eigenvalues    EBANDS =      -378.45664829
  atomic energy  EATOM  =      1785.06109253
  ---------------------------------------------------
  free energy    TOTEN  =       -17.72723193 eV

  energy without entropy =      -17.72723193  energy(sigma->0) =      -17.72723193


--------------------------------------------------------------------------------------------------------




----------------------------------------- Iteration    1(   5)  ---------------------------------------


     EDDAV:  cpu time    0.63: real time    0.63
       DOS:  cpu time    0.00: real time    0.00
    CHARGE:  cpu time    0.09: real time    0.09
    MIXING:  cpu time    0.01: real time    0.02
    --------------------------------------------
      LOOP:  cpu time    0.74: real time    0.75

 eigenvalue-minimisations  :    56
 total energy-change (2. order) :-0.3097218E-01  (-0.3096555E-01)
 number of electron      32.0000064 magnetization 
 augmentation part       -3.8331471 magnetization 

 Broyden mixing:
  rms(total) = 0.45916E+00    rms(broyden)= 0.45745E+00
  rms(prec ) = 0.60076E+00
  weight for this iteration     100.00

 Free energy of the ion-electron system (eV)
  ---------------------------------------------------
  alpha Z        PSCENC =         8.81598031
  Ewald energy   TEWEN  =       -81.24181609
  -1/2 Hartree   DENC   =     -1444.11011371
  -exchange  EXHF       =         0.00000000
  -V(xc)+E(xc)   XCENC  =        93.81000607
  PAW double counting   =       831.83787413     -833.44360687
  entropy T*S    EENTRO =         0.00000000
  eigenvalues    EBANDS =      -378.48762047
  atomic energy  EATOM  =      1785.06109253
  ---------------------------------------------------
  free energy    TOTEN  =       -17.75820411 eV

  energy without entropy =      -17.75820411  energy(sigma->0) =      -17.75820411


--------------------------------------------------------------------------------------------------------




----------------------------------------- Iteration    1(   6)  ---------------------------------------


    POTLOK:  cpu time    0.45: real time    0.45
    SETDIJ:  cpu time    0.01: real time    0.01
     EDDAV:  cpu time    0.55: real time    0.55
       DOS:  cpu time    0.00: real time    0.00
    CHARGE:  cpu time    0.09: real time    0.09
    MIXING:  cpu time    0.02: real time    0.02
    --------------------------------------------
      LOOP:  cpu time    1.12: real time    1.13

 eigenvalue-minimisations  :    48
 total energy-change (2. order) : 0.2714374E+00  (-0.3306877E-01)
 number of electron      32.0000063 magnetization 
 augmentation part       -3.8097669 magnetization 

 Broyden mixing:
  rms(total) = 0.26135E+00    rms(broyden)= 0.26121E+00
  rms(prec ) = 0.33474E+00
  weight for this iteration     100.00

 eigenvalues of (default mixing * dielectric matrix)
  average eigenvalue GAMMA=   2.0600
  2.0600

 Free energy of the ion-electron system (eV)
  ---------------------------------------------------
  alpha Z        PSCENC =         8.81598031
  Ewald energy   TEWEN  =       -81.24181609
  -1/2 Hartree   DENC   =     -1448.30743698
  -exchange  EXHF       =         0.00000000
  -V(xc)+E(xc)   XCENC  =        94.20941057
  PAW double counting   =       870.87578467     -872.71832102
  entropy T*S    EENTRO =         0.00000000
  eigenvalues    EBANDS =      -374.18146068
  atomic energy  EATOM  =      1785.06109253
  ---------------------------------------------------
  free energy    TOTEN  =       -17.48676670 eV

  energy without entropy =      -17.48676670  energy(sigma->0) =      -17.48676670


--------------------------------------------------------------------------------------------------------




----------------------------------------- Iteration    1(   7)  ---------------------------------------


    POTLOK:  cpu time    0.45: real time    0.45
    SETDIJ:  cpu time    0.01: real time    0.01
     EDDAV:  cpu time    0.51: real time    0.51
       DOS:  cpu time    0.00: real time    0.00
    CHARGE:  cpu time    0.09: real time    0.09
    MIXING:  cpu time    0.01: real time    0.02
    --------------------------------------------
      LOOP:  cpu time    1.08: real time    1.09

 eigenvalue-minimisations  :    44
 total energy-change (2. order) : 0.6727019E-01  (-0.1826542E-01)
 number of electron      32.0000063 magnetization 
 augmentation part       -3.7896431 magnetization 

 Broyden mixing:
  rms(total) = 0.59956E-01    rms(broyden)= 0.59901E-01
  rms(prec ) = 0.79983E-01
  weight for this iteration     100.00

 eigenvalues of (default mixing * dielectric matrix)
  average eigenvalue GAMMA=   1.6941
  1.1445  2.2436

 Free energy of the ion-electron system (eV)
  ---------------------------------------------------
  alpha Z        PSCENC =         8.81598031
  Ewald energy   TEWEN  =       -81.24181609
  -1/2 Hartree   DENC   =     -1453.28598473
  -exchange  EXHF       =         0.00000000
  -V(xc)+E(xc)   XCENC  =        94.62262049
  PAW double counting   =       908.75308830     -910.76777605
  entropy T*S    EENTRO =         0.00000000
  eigenvalues    EBANDS =      -369.37670126
  atomic energy  EATOM  =      1785.06109253
  ---------------------------------------------------
  free energy    TOTEN  =       -17.41949651 eV

  energy without entropy =      -17.41949651  energy(sigma->0) =      -17.41949651


--------------------------------------------------------------------------------------------------------




----------------------------------------- Iteration    1(   8)  ---------------------------------------


    POTLOK:  cpu time    0.45: real time    0.45
    SETDIJ:  cpu time    0.01: real time    0.01
     EDDAV:  cpu time    0.58: real time    0.58
       DOS:  cpu time    0.00: real time    0.00
    CHARGE:  cpu time    0.09: real time    0.09
    MIXING:  cpu time    0.02: real time    0.02
    --------------------------------------------
      LOOP:  cpu time    1.15: real time    1.18

 eigenvalue-minimisations  :    52
 total energy-change (2. order) :-0.1166758E-03  (-0.9941545E-03)
 number of electron      32.0000064 magnetization 
 augmentation part       -3.7913076 magnetization 

 Broyden mixing:
  rms(total) = 0.19852E-01    rms(broyden)= 0.19845E-01
  rms(prec ) = 0.30031E-01
  weight for this iteration     100.00

 eigenvalues of (default mixing * dielectric matrix)
  average eigenvalue GAMMA=   1.7551
  1.0794  1.7472  2.4387

 Free energy of the ion-electron system (eV)
  ---------------------------------------------------
  alpha Z        PSCENC =         8.81598031
  Ewald energy   TEWEN  =       -81.24181609
  -1/2 Hartree   DENC   =     -1453.78035573
  -exchange  EXHF       =         0.00000000
  -V(xc)+E(xc)   XCENC  =        94.70683980
  PAW double counting   =       916.00934224     -918.05062622
  entropy T*S    EENTRO =         0.00000000
  eigenvalues    EBANDS =      -368.94007002
  atomic energy  EATOM  =      1785.06109253
  ---------------------------------------------------
  free energy    TOTEN  =       -17.41961319 eV

  energy without entropy =      -17.41961319  energy(sigma->0) =      -17.41961319


--------------------------------------------------------------------------------------------------------




----------------------------------------- Iteration    1(   9)  ---------------------------------------


    POTLOK:  cpu time    0.44: real time    0.44
    SETDIJ:  cpu time    0.01: real time    0.01
     EDDAV:  cpu time    0.48: real time    0.48
       DOS:  cpu time    0.00: real time    0.00
    CHARGE:  cpu time    0.09: real time    0.09
    MIXING:  cpu time    0.02: real time    0.02
    --------------------------------------------
      LOOP:  cpu time    1.05: real time    1.07

 eigenvalue-minimisations  :    40
 total energy-change (2. order) :-0.1177774E-02  (-0.1747204E-03)
 number of electron      32.0000064 magnetization 
 augmentation part       -3.7926879 magnetization 

 Broyden mixing:
  rms(total) = 0.58379E-02    rms(broyden)= 0.58287E-02
  rms(prec ) = 0.12500E-01
  weight for this iteration     100.00

 eigenvalues of (default mixing * dielectric matrix)
  average eigenvalue GAMMA=   1.6446
  2.4041  2.0215  1.0325  1.1202

 Free energy of the ion-electron system (eV)
  ---------------------------------------------------
  alpha Z        PSCENC =         8.81598031
  Ewald energy   TEWEN  =       -81.24181609
  -1/2 Hartree   DENC   =     -1453.76302170
  -exchange  EXHF       =         0.00000000
  -V(xc)+E(xc)   XCENC  =        94.72686318
  PAW double counting   =       917.30016354     -919.34547066
  entropy T*S    EENTRO =         0.00000000
  eigenvalues    EBANDS =      -368.97458206
  atomic energy  EATOM  =      1785.06109253
  ---------------------------------------------------
  free energy    TOTEN  =       -17.42079096 eV

  energy without entropy =      -17.42079096  energy(sigma->0) =      -17.42079096


--------------------------------------------------------------------------------------------------------




----------------------------------------- Iteration    1(  10)  ---------------------------------------


    POTLOK:  cpu time    0.46: real time    0.46
    SETDIJ:  cpu time    0.01: real time    0.01
     EDDAV:  cpu time    0.35: real time    0.35
       DOS:  cpu time    0.00: real time    0.00
    CHARGE:  cpu time    0.09: real time    0.09
    MIXING:  cpu time    0.02: real time    0.02
    --------------------------------------------
      LOOP:  cpu time    0.93: real time    0.95

 eigenvalue-minimisations  :    24
 total energy-change (2. order) :-0.8876192E-03  (-0.2049765E-04)
 number of electron      32.0000063 magnetization 
 augmentation part       -3.7924840 magnetization 

 Broyden mixing:
  rms(total) = 0.24456E-02    rms(broyden)= 0.24449E-02
  rms(prec ) = 0.74641E-02
  weight for this iteration     100.00

 eigenvalues of (default mixing * dielectric matrix)
  average eigenvalue GAMMA=   1.7402
  2.6706  2.3879  1.0568  1.0568  1.5290

 Free energy of the ion-electron system (eV)
  ---------------------------------------------------
  alpha Z        PSCENC =         8.81598031
  Ewald energy   TEWEN  =       -81.24181609
  -1/2 Hartree   DENC   =     -1453.99858642
  -exchange  EXHF       =         0.00000000
  -V(xc)+E(xc)   XCENC  =        94.73046865
  PAW double counting   =       917.15850145     -919.20362914
  entropy T*S    EENTRO =         0.00000000
  eigenvalues    EBANDS =      -368.74368986
  atomic energy  EATOM  =      1785.06109253
  ---------------------------------------------------
  free energy    TOTEN  =       -17.42167858 eV

  energy without entropy =      -17.42167858  energy(sigma->0) =      -17.42167858


--------------------------------------------------------------------------------------------------------




----------------------------------------- Iteration    1(  11)  ---------------------------------------


    POTLOK:  cpu time    0.45: real time    0.45
    SETDIJ:  cpu time    0.01: real time    0.01
     EDDAV:  cpu time    0.41: real time    0.41
       DOS:  cpu time    0.00: real time    0.00
    CHARGE:  cpu time    0.09: real time    0.09
    MIXING:  cpu time    0.02: real time    0.02
    --------------------------------------------
      LOOP:  cpu time    0.99: real time    1.00

 eigenvalue-minimisations  :    32
 total energy-change (2. order) :-0.9393023E-03  (-0.2370815E-04)
 number of electron      32.0000063 magnetization 
 augmentation part       -3.7922909 magnetization 

 Broyden mixing:
  rms(total) = 0.16522E-02    rms(broyden)= 0.16510E-02
  rms(prec ) = 0.39031E-02
  weight for this iteration     100.00

 eigenvalues of (default mixing * dielectric matrix)
  average eigenvalue GAMMA=   1.8045
  2.6737  1.0516  1.0516  1.9744  1.9744  2.1015

 Free energy of the ion-electron system (eV)
  ---------------------------------------------------
  alpha Z        PSCENC =         8.81598031
  Ewald energy   TEWEN  =       -81.24181609
  -1/2 Hartree   DENC   =     -1454.30632360
  -exchange  EXHF       =         0.00000000
  -V(xc)+E(xc)   XCENC  =        94.73797125
  PAW double counting   =       917.21377791     -919.26050050
  entropy T*S    EENTRO =         0.00000000
  eigenvalues    EBANDS =      -368.44279969
  atomic energy  EATOM  =      1785.06109253
  ---------------------------------------------------
  free energy    TOTEN  =       -17.42261788 eV

  energy without entropy =      -17.42261788  energy(sigma->0) =      -17.42261788


--------------------------------------------------------------------------------------------------------




----------------------------------------- Iteration    1(  12)  ---------------------------------------


    POTLOK:  cpu time    0.45: real time    0.45
    SETDIJ:  cpu time    0.01: real time    0.01
     EDDAV:  cpu time    0.35: real time    0.35
       DOS:  cpu time    0.00: real time    0.00
    CHARGE:  cpu time    0.09: real time    0.09
    MIXING:  cpu time    0.02: real time    0.02
    --------------------------------------------
      LOOP:  cpu time    0.92: real time    0.93

 eigenvalue-minimisations  :    24
 total energy-change (2. order) :-0.6499804E-03  (-0.1144050E-04)
 number of electron      32.0000063 magnetization 
 augmentation part       -3.7923564 magnetization 

 Broyden mixing:
  rms(total) = 0.12937E-02    rms(broyden)= 0.12931E-02
  rms(prec ) = 0.28811E-02
  weight for this iteration     100.00

 eigenvalues of (default mixing * dielectric matrix)
  average eigenvalue GAMMA=   1.9557
  4.1641  2.5937  2.2532  1.5471  1.0905  1.0905  0.9508

 Free energy of the ion-electron system (eV)
  ---------------------------------------------------
  alpha Z        PSCENC =         8.81598031
  Ewald energy   TEWEN  =       -81.24181609
  -1/2 Hartree   DENC   =     -1454.42454169
  -exchange  EXHF       =         0.00000000
  -V(xc)+E(xc)   XCENC  =        94.74055330
  PAW double counting   =       917.07774657     -919.12374205
  entropy T*S    EENTRO =         0.00000000
  eigenvalues    EBANDS =      -368.32854073
  atomic energy  EATOM  =      1785.06109253
  ---------------------------------------------------
  free energy    TOTEN  =       -17.42326786 eV

  energy without entropy =      -17.42326786  energy(sigma->0) =      -17.42326786


--------------------------------------------------------------------------------------------------------




----------------------------------------- Iteration    1(  13)  ---------------------------------------


    POTLOK:  cpu time    0.45: real time    0.45
    SETDIJ:  cpu time    0.01: real time    0.01
     EDDAV:  cpu time    0.35: real time    0.35
       DOS:  cpu time    0.00: real time    0.00
    --------------------------------------------
      LOOP:  cpu time    0.81: real time    0.83

 eigenvalue-minimisations  :    24
 total energy-change (2. order) :-0.9365741E-04  (-0.3379785E-05)
 number of electron      32.0000063 magnetization 
 augmentation part       -3.7923564 magnetization 

 Free energy of the ion-electron system (eV)
  ---------------------------------------------------
  alpha Z        PSCENC =         8.81598031
  Ewald energy   TEWEN  =       -81.24181609
  -1/2 Hartree   DENC   =     -1454.52214627
  -exchange  EXHF       =         0.00000000
  -V(xc)+E(xc)   XCENC  =        94.74118868
  PAW double counting   =       917.02604917     -919.07153512
  entropy T*S    EENTRO =         0.00000000
  eigenvalues    EBANDS =      -368.23217472
  atomic energy  EATOM  =      1785.06109253
  ---------------------------------------------------
  free energy    TOTEN  =       -17.42336152 eV

  energy without entropy =      -17.42336152  energy(sigma->0) =      -17.42336152


--------------------------------------------------------------------------------------------------------




 average (electrostatic) potential at core
  the test charge radii are     0.6991  0.9406
  (the norm of the test charge is              1.0000)
       1 -63.1752       2-100.1940       3-100.1940       4-100.1940       5-100.1940
 
 
 
 E-fermi :  -5.0183     XC(G=0):  -3.0155     alpha+bet : -1.6667


 k-point   1 :       0.0000    0.0000    0.0000
  band No.  band energies     occupation 
      1     -23.1673      2.00000
      2     -19.8863      2.00000
      3     -19.8863      2.00000
      4     -19.8863      2.00000
      5     -14.2466      2.00000
      6     -10.9957      2.00000
      7     -10.9957      2.00000
      8     -10.9957      2.00000
      9      -7.5863      2.00000
     10      -7.5863      2.00000
     11      -6.9486      2.00000
     12      -6.9486      2.00000
     13      -6.9486      2.00000
     14      -6.0127      2.00000
     15      -6.0127      2.00000
     16      -6.0127      2.00000
     17      -1.1696      0.00000
     18       0.3452      0.00000
     19       0.3452      0.00000
     20       0.4336      0.00000


--------------------------------------------------------------------------------------------------------


 soft charge-density along one line, spin component           1
         0         1         2         3         4         5         6         7         8         9
 total charge-density along one line
 
 pseudopotential strength for first ion, spin component:           1
 10.457   0.028   0.000   0.000   0.000   0.000   0.000   0.000
  0.028  -0.001   0.000   0.000   0.000   0.000   0.000   0.000
  0.000   0.000  -4.644   0.000   0.000   0.000   0.000   0.000
  0.000   0.000   0.000  -4.644   0.000   0.000   0.000   0.000
  0.000   0.000   0.000   0.000  -4.644   0.000   0.000   0.000
  0.000   0.000   0.000   0.000   0.000  -0.779   0.000   0.000
  0.000   0.000   0.000   0.000   0.000   0.000  -0.779   0.000
  0.000   0.000   0.000   0.000   0.000   0.000   0.000  -0.779
 total augmentation occupancy for first ion, spin component:           1
  1.455  -0.186   0.000   0.000   0.000   0.000   0.000   0.000
 -0.186   0.400   0.000   0.000   0.000   0.000   0.000   0.000
  0.000   0.000   0.847   0.000   0.000   0.219   0.000   0.000
  0.000   0.000   0.000   0.847   0.000   0.000   0.219   0.000
  0.000   0.000   0.000   0.000   0.847   0.000   0.000   0.219
  0.000   0.000   0.219   0.000   0.000   0.060   0.000   0.000
  0.000   0.000   0.000   0.219   0.000   0.000   0.060   0.000
  0.000   0.000   0.000   0.000   0.219   0.000   0.000   0.060


------------------------ aborting loop because EDIFF is reached ----------------------------------------


    CHARGE:  cpu time    0.09: real time    0.09
    FORLOC:  cpu time    0.04: real time    0.04
    FORNL :  cpu time    0.09: real time    0.09
    STRESS:  cpu time    0.19: real time    0.19
    FORCOR:  cpu time    0.45: real time    0.57
    FORHAR:  cpu time    0.15: real time    0.15
    MIXING:  cpu time    0.02: real time    0.02

  FORCE on cell =-STRESS in cart. coord.  units (eV):
  Direction    XX          YY          ZZ          XY          YZ          ZX
  --------------------------------------------------------------------------------------
  Alpha Z     8.81598     8.81598     8.81598
  Ewald     -27.08092   -27.08092   -27.08092     0.00000     0.00000     0.00000
  Hartree   484.87609   484.87609   484.87609     0.00000     0.00000     0.00000
  E(xc)    -118.20828  -118.20828  -118.20828     0.00000     0.00000     0.00000
  Local   -1125.12401 -1125.12401 -1125.12401     0.00000     0.00000     0.00000
  n-local   330.14595   330.14582   330.14587    -0.00029    -0.00021    -0.00044
  augment   -79.54345   -79.54345   -79.54345     0.00000     0.00001     0.00000
  Kinetic   523.08994   523.08886   523.08933     0.00028     0.00020     0.00044
  Fock        0.00000     0.00000     0.00000     0.00000     0.00000     0.00000
  -------------------------------------------------------------------------------------
  Total      -3.02932    -3.02932    -3.02932     0.00000     0.00000     0.00000
  in kB      -9.47952    -9.47952    -9.47952     0.00000     0.00000     0.00000
  external pressure =       -9.48 kB  Pullay stress =        0.00 kB


 VOLUME and BASIS-vectors are now :
 -----------------------------------------------------------------------------
  energy-cutoff  :      250.00
  volume of cell :      512.00
      direct lattice vectors                 reciprocal lattice vectors
     8.000000000  0.000000000  0.000000000     0.125000000  0.000000000  0.000000000
     0.000000000  8.000000000  0.000000000     0.000000000  0.125000000  0.000000000
     0.000000000  0.000000000  8.000000000     0.000000000  0.000000000  0.125000000

  length of vectors
     8.000000000  8.000000000  8.000000000     0.125000000  0.125000000  0.125000000


 FORCES acting on ions
    electron-ion (+dipol)            ewald-force                    non-local-force                 convergence-correction
 -----------------------------------------------------------------------------------------------
   -.282E-15 -.462E-14 0.489E-14   -.289E-14 0.333E-14 0.333E-14   -.169E-20 0.424E-21 -.635E-21   -.421E-14 -.171E-13 0.255E-13
   -.167E+03 -.167E+03 -.167E+03   0.170E+03 0.170E+03 0.170E+03   -.324E+01 -.324E+01 -.324E+01   0.165E-01 0.165E-01 0.165E-01
   0.167E+03 0.167E+03 -.167E+03   -.170E+03 -.170E+03 0.170E+03   0.324E+01 0.324E+01 -.324E+01   -.165E-01 -.165E-01 0.165E-01
   0.167E+03 -.167E+03 0.167E+03   -.170E+03 0.170E+03 -.170E+03   0.324E+01 -.324E+01 0.324E+01   -.165E-01 0.165E-01 -.165E-01
   -.167E+03 0.167E+03 0.167E+03   0.170E+03 -.170E+03 -.170E+03   -.324E+01 0.324E+01 0.324E+01   0.165E-01 -.165E-01 -.165E-01
 -----------------------------------------------------------------------------------------------
   0.252E-07 0.252E-07 -.379E-07   0.000E+00 0.000E+00 0.284E-13   -.444E-15 -.444E-15 -.444E-15   -.224E-13 -.583E-13 0.130E-12
 
 
 POSITION                                       TOTAL-FORCE (eV/Angst)
 -----------------------------------------------------------------------------------
      0.00000      0.00000      0.00000         0.000000      0.000000      0.000000
      1.02134      1.02134      1.02134         0.115784      0.115784      0.115784
      6.97866      6.97866      1.02134        -0.115784     -0.115784      0.115784
      6.97866      1.02134      6.97866        -0.115784      0.115784     -0.115784
      1.02134      6.97866      6.97866         0.115784     -0.115784     -0.115784
 -----------------------------------------------------------------------------------
    total drift:                                0.000000      0.000000      0.000000


--------------------------------------------------------------------------------------------------------



  FREE ENERGIE OF THE ION-ELECTRON SYSTEM (eV)
  ---------------------------------------------------
  free  energy   TOTEN  =       -17.423362 eV

  energy  without entropy=      -17.423362  energy(sigma->0) =      -17.423362
 


--------------------------------------------------------------------------------------------------------


    POTLOK:  cpu time    0.46: real time    0.46


--------------------------------------------------------------------------------------------------------




--------------------------------------------------------------------------------------------------------


    WAVPRE:  cpu time    0.13: real time    0.13
    FEWALD:  cpu time    0.00: real time    0.00
    ORTHCH:  cpu time    0.02: real time    0.02
     LOOP+:  cpu time   13.79: real time   14.19


----------------------------------------- Iteration    2(   1)  ---------------------------------------


    POTLOK:  cpu time    0.45: real time    0.45
    SETDIJ:  cpu time    0.01: real time    0.01
     EDDAV:  cpu time    0.50: real time    0.50
       DOS:  cpu time    0.00: real time    0.00
    CHARGE:  cpu time    0.09: real time    0.09
    MIXING:  cpu time    0.01: real time    0.01
    --------------------------------------------
      LOOP:  cpu time    1.07: real time    1.08

 eigenvalue-minimisations  :    40
 total energy-change (2. order) :-0.7520687E-03  (-0.6976644E-01)
 number of electron      32.0000034 magnetization 
 augmentation part       -3.7916942 magnetization 

 Broyden mixing:
  rms(total) = 0.14876E-01    rms(broyden)= 0.14760E-01
  rms(prec ) = 0.20753E-01
  weight for this iteration     100.00

 Free energy of the ion-electron system (eV)
  ---------------------------------------------------
  alpha Z        PSCENC =         8.81598031
  Ewald energy   TEWEN  =       -92.55982717
  -1/2 Hartree   DENC   =     -1444.28775722
  -exchange  EXHF       =         0.00000000
  -V(xc)+E(xc)   XCENC  =        94.61787501
  PAW double counting   =       917.05265055     -919.09815929
  entropy T*S    EENTRO =         0.00000000
  eigenvalues    EBANDS =      -367.02587466
  atomic energy  EATOM  =      1785.06109253
  ---------------------------------------------------
  free energy    TOTEN  =       -17.42401993 eV

  energy without entropy =      -17.42401993  energy(sigma->0) =      -17.42401993


--------------------------------------------------------------------------------------------------------




----------------------------------------- Iteration    2(   2)  ---------------------------------------


    POTLOK:  cpu time    0.45: real time    0.45
    SETDIJ:  cpu time    0.01: real time    0.01
     EDDAV:  cpu time    0.54: real time    0.54
       DOS:  cpu time    0.00: real time    0.00
    CHARGE:  cpu time    0.09: real time    0.09
    MIXING:  cpu time    0.02: real time    0.02
    --------------------------------------------
      LOOP:  cpu time    1.12: real time    1.12

 eigenvalue-minimisations  :    44
 total energy-change (2. order) :-0.2221607E-02  (-0.2654840E-02)
 number of electron      32.0000035 magnetization 
 augmentation part       -3.7941184 magnetization 

 Broyden mixing:
  rms(total) = 0.11140E-01    rms(broyden)= 0.11132E-01
  rms(prec ) = 0.14998E-01
  weight for this iteration     100.00

 eigenvalues of (default mixing * dielectric matrix)
  average eigenvalue GAMMA=   0.7862
  0.7862

 Free energy of the ion-electron system (eV)
  ---------------------------------------------------
  alpha Z        PSCENC =         8.81598031
  Ewald energy   TEWEN  =       -92.55982717
  -1/2 Hartree   DENC   =     -1443.97879068
  -exchange  EXHF       =         0.00000000
  -V(xc)+E(xc)   XCENC  =        94.61274551
  PAW double counting   =       915.92014976     -917.95789047
  entropy T*S    EENTRO =         0.00000000
  eigenvalues    EBANDS =      -367.33970133
  atomic energy  EATOM  =      1785.06109253
  ---------------------------------------------------
  free energy    TOTEN  =       -17.42624154 eV

  energy without entropy =      -17.42624154  energy(sigma->0) =      -17.42624154


--------------------------------------------------------------------------------------------------------




----------------------------------------- Iteration    2(   3)  ---------------------------------------


    POTLOK:  cpu time    0.45: real time    0.45
    SETDIJ:  cpu time    0.01: real time    0.01
     EDDAV:  cpu time    0.66: real time    0.66
       DOS:  cpu time    0.00: real time    0.00
    CHARGE:  cpu time    0.09: real time    0.09
    MIXING:  cpu time    0.02: real time    0.02
    --------------------------------------------
      LOOP:  cpu time    1.23: real time    1.24

 eigenvalue-minimisations  :    56
 total energy-change (2. order) : 0.1162503E-03  (-0.6488372E-04)
 number of electron      32.0000035 magnetization 
 augmentation part       -3.7938826 magnetization 

 Broyden mixing:
  rms(total) = 0.62809E-02    rms(broyden)= 0.62778E-02
  rms(prec ) = 0.79198E-02
  weight for this iteration     100.00

 eigenvalues of (default mixing * dielectric matrix)
  average eigenvalue GAMMA=   1.2673
  1.2673  1.2673

 Free energy of the ion-electron system (eV)
  ---------------------------------------------------
  alpha Z        PSCENC =         8.81598031
  Ewald energy   TEWEN  =       -92.55982717
  -1/2 Hartree   DENC   =     -1443.85320869
  -exchange  EXHF       =         0.00000000
  -V(xc)+E(xc)   XCENC  =        94.61051623
  PAW double counting   =       915.36206954     -917.39327615
  entropy T*S    EENTRO =         0.00000000
  eigenvalues    EBANDS =      -367.46947189
  atomic energy  EATOM  =      1785.06109253
  ---------------------------------------------------
  free energy    TOTEN  =       -17.42612529 eV

  energy without entropy =      -17.42612529  energy(sigma->0) =      -17.42612529


--------------------------------------------------------------------------------------------------------




----------------------------------------- Iteration    2(   4)  ---------------------------------------


    POTLOK:  cpu time    0.48: real time    0.48
    SETDIJ:  cpu time    0.01: real time    0.01
     EDDAV:  cpu time    0.40: real time    0.40
       DOS:  cpu time    0.00: real time    0.00
    --------------------------------------------
      LOOP:  cpu time    0.89: real time    0.90

 eigenvalue-minimisations  :    24
 total energy-change (2. order) : 0.8784452E-05  (-0.1256680E-04)
 number of electron      32.0000035 magnetization 
 augmentation part       -3.7938826 magnetization 

 Free energy of the ion-electron system (eV)
  ---------------------------------------------------
  alpha Z        PSCENC =         8.81598031
  Ewald energy   TEWEN  =       -92.55982717
  -1/2 Hartree   DENC   =     -1443.82251045
  -exchange  EXHF       =         0.00000000
  -V(xc)+E(xc)   XCENC  =        94.60895493
  PAW double counting   =       914.87072522     -916.89615334
  entropy T*S    EENTRO =         0.00000000
  eigenvalues    EBANDS =      -367.50437854
  atomic energy  EATOM  =      1785.06109253
  ---------------------------------------------------
  free energy    TOTEN  =       -17.42611650 eV

  energy without entropy =      -17.42611650  energy(sigma->0) =      -17.42611650


--------------------------------------------------------------------------------------------------------




 average (electrostatic) potential at core
  the test charge radii are     0.6991  0.9406
  (the norm of the test charge is              1.0000)
       1 -63.1869       2-100.1970       3-100.1970       4-100.1970       5-100.1970
 
 
 
 E-fermi :  -5.0073     XC(G=0):  -2.9982     alpha+bet : -1.6667


 k-point   1 :       0.0000    0.0000    0.0000
  band No.  band energies     occupation 
      1     -23.0507      2.00000
      2     -19.8539      2.00000
      3     -19.8539      2.00000
      4     -19.8539      2.00000
      5     -14.2569      2.00000
      6     -10.9448      2.00000
      7     -10.9448      2.00000
      8     -10.9448      2.00000
      9      -7.5625      2.00000
     10      -7.5625      2.00000
     11      -6.9445      2.00000
     12      -6.9445      2.00000
     13      -6.9445      2.00000
     14      -6.0300      2.00000
     15      -6.0300      2.00000
     16      -6.0300      2.00000
     17      -1.2773      0.00000
     18       0.2779      0.00000
     19       0.2779      0.00000
     20       0.2807      0.00000


--------------------------------------------------------------------------------------------------------


 soft charge-density along one line, spin component           1
         0         1         2         3         4         5         6         7         8         9
 total charge-density along one line
 
 pseudopotential strength for first ion, spin component:           1
 10.457   0.028   0.000   0.000   0.000   0.000   0.000   0.000
  0.028  -0.001   0.000   0.000   0.000   0.000   0.000   0.000
  0.000   0.000  -4.645   0.000   0.000   0.000   0.000   0.000
  0.000   0.000   0.000  -4.645   0.000   0.000   0.000   0.000
  0.000   0.000   0.000   0.000  -4.645   0.000   0.000   0.000
  0.000   0.000   0.000   0.000   0.000  -0.779   0.000   0.000
  0.000   0.000   0.000   0.000   0.000   0.000  -0.779   0.000
  0.000   0.000   0.000   0.000   0.000   0.000   0.000  -0.779
 total augmentation occupancy for first ion, spin component:           1
  1.456  -0.171   0.000   0.000   0.000   0.000   0.000   0.000
 -0.171   0.385   0.000   0.000   0.000   0.000   0.000   0.000
  0.000   0.000   0.838   0.000   0.000   0.216   0.000   0.000
  0.000   0.000   0.000   0.838   0.000   0.000   0.216   0.000
  0.000   0.000   0.000   0.000   0.838   0.000   0.000   0.216
  0.000   0.000   0.216   0.000   0.000   0.059   0.000   0.000
  0.000   0.000   0.000   0.216   0.000   0.000   0.059   0.000
  0.000   0.000   0.000   0.000   0.216   0.000   0.000   0.059


------------------------ aborting loop because EDIFF is reached ----------------------------------------


    CHARGE:  cpu time    0.10: real time    0.10
    FORLOC:  cpu time    0.05: real time    0.05
    FORNL :  cpu time    0.09: real time    0.09
    STRESS:  cpu time    0.20: real time    0.20
    FORCOR:  cpu time    0.50: real time    0.50
    FORHAR:  cpu time    0.16: real time    0.17
    MIXING:  cpu time    0.02: real time    0.02

  FORCE on cell =-STRESS in cart. coord.  units (eV):
  Direction    XX          YY          ZZ          XY          YZ          ZX
  --------------------------------------------------------------------------------------
  Alpha Z     8.81598     8.81598     8.81598
  Ewald     -30.85359   -30.85359   -30.85359     0.00000     0.00000     0.00000
  Hartree   481.23537   481.23537   481.23537     0.00000     0.00000     0.00000
  E(xc)    -118.08246  -118.08246  -118.08246     0.00000     0.00000     0.00000
  Local   -1117.51653 -1117.51653 -1117.51653     0.00000     0.00000     0.00000
  n-local   330.07000   330.07024   330.07013     0.00027     0.00022     0.00039
  augment   -79.55816   -79.55816   -79.55816     0.00000     0.00000     0.00001
  Kinetic   522.22270   522.22247   522.22257    -0.00012    -0.00011    -0.00016
  Fock        0.00000     0.00000     0.00000     0.00000     0.00000     0.00000
  -------------------------------------------------------------------------------------
  Total      -3.66668    -3.66668    -3.66668     0.00000     0.00000     0.00000
  in kB     -11.47396   -11.47396   -11.47396     0.00000     0.00000     0.00000
  external pressure =      -11.47 kB  Pullay stress =        0.00 kB


 VOLUME and BASIS-vectors are now :
 -----------------------------------------------------------------------------
  energy-cutoff  :      250.00
  volume of cell :      512.00
      direct lattice vectors                 reciprocal lattice vectors
     8.000000000  0.000000000  0.000000000     0.125000000  0.000000000  0.000000000
     0.000000000  8.000000000  0.000000000     0.000000000  0.125000000  0.000000000
     0.000000000  0.000000000  8.000000000     0.000000000  0.000000000  0.125000000

  length of vectors
     8.000000000  8.000000000  8.000000000     0.125000000  0.125000000  0.125000000


 FORCES acting on ions
    electron-ion (+dipol)            ewald-force                    non-local-force                 convergence-correction
 -----------------------------------------------------------------------------------------------
   -.444E-14 -.546E-15 -.205E-13   -.155E-14 -.129E-13 0.133E-14   0.212E-21 -.106E-20 0.529E-21   -.272E-12 -.961E-13 0.315E-13
   -.164E+03 -.164E+03 -.164E+03   0.168E+03 0.168E+03 0.168E+03   -.338E+01 -.338E+01 -.338E+01   -.257E-01 -.257E-01 -.257E-01
   0.164E+03 0.164E+03 -.164E+03   -.168E+03 -.168E+03 0.168E+03   0.338E+01 0.338E+01 -.338E+01   0.257E-01 0.257E-01 -.257E-01
   0.164E+03 -.164E+03 0.164E+03   -.168E+03 0.168E+03 -.168E+03   0.338E+01 -.338E+01 0.338E+01   0.257E-01 -.257E-01 0.257E-01
   -.164E+03 0.164E+03 0.164E+03   0.168E+03 -.168E+03 -.168E+03   -.338E+01 0.338E+01 0.338E+01   -.257E-01 0.257E-01 0.257E-01
 -----------------------------------------------------------------------------------------------
   -.115E-06 -.115E-06 -.432E-07   0.000E+00 -.284E-13 -.284E-13   0.133E-14 0.000E+00 0.000E+00   -.457E-12 -.643E-12 0.442E-12
 
 
 POSITION                                       TOTAL-FORCE (eV/Angst)
 -----------------------------------------------------------------------------------
      0.00000      0.00000      0.00000         0.000000      0.000000      0.000000
      1.02693      1.02693      1.02693        -0.029782     -0.029782     -0.029782
      6.97307      6.97307      1.02693         0.029782      0.029782     -0.029782
      6.97307      1.02693      6.97307         0.029782     -0.029782      0.029782
      1.02693      6.97307      6.97307        -0.029782      0.029782      0.029782
 -----------------------------------------------------------------------------------
    total drift:                                0.000000      0.000000      0.000000


--------------------------------------------------------------------------------------------------------



  FREE ENERGIE OF THE ION-ELECTRON SYSTEM (eV)
  ---------------------------------------------------
  free  energy   TOTEN  =       -17.426117 eV

  energy  without entropy=      -17.426117  energy(sigma->0) =      -17.426117
 
 d Force = 0.2882276E-02[-0.200E-02, 0.776E-02]  d Energy = 0.2754983E-02 0.127E-03
 d Force = 0.1131821E+02[ 0.112E+02, 0.114E+02]  d Ewald  = 0.1131801E+02 0.195E-03


--------------------------------------------------------------------------------------------------------


    POTLOK:  cpu time    0.51: real time    0.51


--------------------------------------------------------------------------------------------------------


 Steepest descent step on ions:
 trial-energy change:   -0.002755  1 .order   -0.002882   -0.007761    0.001996
  (g-gl).g = 0.776E-02      g.g   = 0.776E-02  gl.gl    = 0.000E+00
 g(Force)  = 0.776E-02   g(Stress)= 0.000E+00 ortho     = 0.000E+00
 gamma     =   0.00000
 trial     =   1.00000
 opt step  =   0.79540  (harmonic =   0.79540) maximal distance =0.00444290
 next E    =   -17.426448   (d E  =  -0.00309)


--------------------------------------------------------------------------------------------------------


    WAVPRE:  cpu time    0.13: real time    0.14
    FEWALD:  cpu time    0.00: real time    0.00
    ORTHCH:  cpu time    0.02: real time    0.02
     LOOP+:  cpu time    6.13: real time    6.19


----------------------------------------- Iteration    3(   1)  ---------------------------------------


    POTLOK:  cpu time    0.49: real time    0.49
    SETDIJ:  cpu time    0.01: real time    0.01
     EDDAV:  cpu time    0.58: real time    0.58
       DOS:  cpu time    0.00: real time    0.00
    CHARGE:  cpu time    0.10: real time    0.10
    MIXING:  cpu time    0.01: real time    0.01
    --------------------------------------------
      LOOP:  cpu time    1.20: real time    1.20

 eigenvalue-minimisations  :    44
 total energy-change (2. order) :-0.1873697E-03  (-0.2970880E-02)
 number of electron      32.0000040 magnetization 
 augmentation part       -3.7940209 magnetization 

 Broyden mixing:
  rms(total) = 0.28013E-02    rms(broyden)= 0.27755E-02
  rms(prec ) = 0.44308E-02
  weight for this iteration     100.00

 Free energy of the ion-electron system (eV)
  ---------------------------------------------------
  alpha Z        PSCENC =         8.81598031
  Ewald energy   TEWEN  =       -90.25619766
  -1/2 Hartree   DENC   =     -1445.87522734
  -exchange  EXHF       =         0.00000000
  -V(xc)+E(xc)   XCENC  =        94.63314387
  PAW double counting   =       914.43755842     -916.45833429
  entropy T*S    EENTRO =         0.00000000
  eigenvalues    EBANDS =      -367.78432850
  atomic energy  EATOM  =      1785.06109253
  ---------------------------------------------------
  free energy    TOTEN  =       -17.42631266 eV

  energy without entropy =      -17.42631266  energy(sigma->0) =      -17.42631266


--------------------------------------------------------------------------------------------------------




----------------------------------------- Iteration    3(   2)  ---------------------------------------


    POTLOK:  cpu time    0.49: real time    0.49
    SETDIJ:  cpu time    0.01: real time    0.01
     EDDAV:  cpu time    0.63: real time    0.63
       DOS:  cpu time    0.00: real time    0.00
    CHARGE:  cpu time    0.10: real time    0.10
    MIXING:  cpu time    0.02: real time    0.02
    --------------------------------------------
      LOOP:  cpu time    1.25: real time    1.25

 eigenvalue-minimisations  :    48
 total energy-change (2. order) :-0.9742401E-04  (-0.1192261E-03)
 number of electron      32.0000040 magnetization 
 augmentation part       -3.7935942 magnetization 

 Broyden mixing:
  rms(total) = 0.22410E-02    rms(broyden)= 0.22395E-02
  rms(prec ) = 0.30586E-02
  weight for this iteration     100.00

 eigenvalues of (default mixing * dielectric matrix)
  average eigenvalue GAMMA=   0.6961
  0.6961

 Free energy of the ion-electron system (eV)
  ---------------------------------------------------
  alpha Z        PSCENC =         8.81598031
  Ewald energy   TEWEN  =       -90.25619766
  -1/2 Hartree   DENC   =     -1445.95628482
  -exchange  EXHF       =         0.00000000
  -V(xc)+E(xc)   XCENC  =        94.63434166
  PAW double counting   =       914.65773239     -916.68006394
  entropy T*S    EENTRO =         0.00000000
  eigenvalues    EBANDS =      -367.70301055
  atomic energy  EATOM  =      1785.06109253
  ---------------------------------------------------
  free energy    TOTEN  =       -17.42641008 eV

  energy without entropy =      -17.42641008  energy(sigma->0) =      -17.42641008


--------------------------------------------------------------------------------------------------------




----------------------------------------- Iteration    3(   3)  ---------------------------------------


    POTLOK:  cpu time    0.49: real time    0.49
    SETDIJ:  cpu time    0.01: real time    0.01
     EDDAV:  cpu time    0.40: real time    0.40
       DOS:  cpu time    0.00: real time    0.00
    --------------------------------------------
      LOOP:  cpu time    0.91: real time    0.94

 eigenvalue-minimisations  :    24
 total energy-change (2. order) : 0.6206962E-05  (-0.2426064E-05)
 number of electron      32.0000040 magnetization 
 augmentation part       -3.7935942 magnetization 

 Free energy of the ion-electron system (eV)
  ---------------------------------------------------
  alpha Z        PSCENC =         8.81598031
  Ewald energy   TEWEN  =       -90.25619766
  -1/2 Hartree   DENC   =     -1445.98764785
  -exchange  EXHF       =         0.00000000
  -V(xc)+E(xc)   XCENC  =        94.63494282
  PAW double counting   =       914.76786336     -916.79160084
  entropy T*S    EENTRO =         0.00000000
  eigenvalues    EBANDS =      -367.67083655
  atomic energy  EATOM  =      1785.06109253
  ---------------------------------------------------
  free energy    TOTEN  =       -17.42640388 eV

  energy without entropy =      -17.42640388  energy(sigma->0) =      -17.42640388


--------------------------------------------------------------------------------------------------------




 average (electrostatic) potential at core
  the test charge radii are     0.6991  0.9406
  (the norm of the test charge is              1.0000)
       1 -63.1929       2-100.1976       3-100.1976       4-100.1976       5-100.1976
 
 
 
 E-fermi :  -5.0068     XC(G=0):  -3.0013     alpha+bet : -1.6667


 k-point   1 :       0.0000    0.0000    0.0000
  band No.  band energies     occupation 
      1     -23.0759      2.00000
      2     -19.8613      2.00000
      3     -19.8613      2.00000
      4     -19.8613      2.00000
      5     -14.2549      2.00000
      6     -10.9557      2.00000
      7     -10.9557      2.00000
      8     -10.9557      2.00000
      9      -7.5677      2.00000
     10      -7.5677      2.00000
     11      -6.9459      2.00000
     12      -6.9459      2.00000
     13      -6.9459      2.00000
     14      -6.0269      2.00000
     15      -6.0269      2.00000
     16      -6.0269      2.00000
     17      -1.2559      0.00000
     18       0.2905      0.00000
     19       0.2905      0.00000
     20       0.2906      0.00000


--------------------------------------------------------------------------------------------------------


 soft charge-density along one line, spin component           1
         0         1         2         3         4         5         6         7         8         9
 total charge-density along one line
 
 pseudopotential strength for first ion, spin component:           1
 10.457   0.028   0.000   0.000   0.000   0.000   0.000   0.000
  0.028  -0.001   0.000   0.000   0.000   0.000   0.000   0.000
  0.000   0.000  -4.645   0.000   0.000   0.000   0.000   0.000
  0.000   0.000   0.000  -4.645   0.000   0.000   0.000   0.000
  0.000   0.000   0.000   0.000  -4.645   0.000   0.000   0.000
  0.000   0.000   0.000   0.000   0.000  -0.779   0.000   0.000
  0.000   0.000   0.000   0.000   0.000   0.000  -0.779   0.000
  0.000   0.000   0.000   0.000   0.000   0.000   0.000  -0.779
 total augmentation occupancy for first ion, spin component:           1
  1.456  -0.171   0.000   0.000   0.000   0.000   0.000   0.000
 -0.171   0.389   0.000   0.000   0.000   0.000   0.000   0.000
  0.000   0.000   0.840   0.000   0.000   0.217   0.000   0.000
  0.000   0.000   0.000   0.840   0.000   0.000   0.217   0.000
  0.000   0.000   0.000   0.000   0.840   0.000   0.000   0.217
  0.000   0.000   0.217   0.000   0.000   0.059   0.000   0.000
  0.000   0.000   0.000   0.217   0.000   0.000   0.059   0.000
  0.000   0.000   0.000   0.000   0.217   0.000   0.000   0.059


------------------------ aborting loop because EDIFF is reached ----------------------------------------


    CHARGE:  cpu time    0.10: real time    0.10
    FORLOC:  cpu time    0.05: real time    0.05
    FORNL :  cpu time    0.09: real time    0.09
    STRESS:  cpu time    0.20: real time    0.20
    FORCOR:  cpu time    0.49: real time    0.49
    FORHAR:  cpu time    0.14: real time    0.15
    MIXING:  cpu time    0.01: real time    0.02

  FORCE on cell =-STRESS in cart. coord.  units (eV):
  Direction    XX          YY          ZZ          XY          YZ          ZX
  --------------------------------------------------------------------------------------
  Alpha Z     8.81598     8.81598     8.81598
  Ewald     -30.08571   -30.08571   -30.08571     0.00000     0.00000     0.00000
  Hartree   482.01225   482.01225   482.01225     0.00000     0.00000     0.00000
  E(xc)    -118.10516  -118.10516  -118.10516     0.00000     0.00000     0.00000
  Local   -1119.10192 -1119.10192 -1119.10192     0.00000     0.00000     0.00000
  n-local   330.09052   330.09050   330.09051     0.00002     0.00002     0.00003
  augment   -79.55447   -79.55446   -79.55447     0.00001     0.00001     0.00001
  Kinetic   522.42289   522.42291   522.42290    -0.00001    -0.00001    -0.00002
  Fock        0.00000     0.00000     0.00000     0.00000     0.00000     0.00000
  -------------------------------------------------------------------------------------
  Total      -3.50562    -3.50562    -3.50562     0.00000     0.00000     0.00000
  in kB     -10.96996   -10.96996   -10.96996     0.00000     0.00000     0.00000
  external pressure =      -10.97 kB  Pullay stress =        0.00 kB


 VOLUME and BASIS-vectors are now :
 -----------------------------------------------------------------------------
  energy-cutoff  :      250.00
  volume of cell :      512.00
      direct lattice vectors                 reciprocal lattice vectors
     8.000000000  0.000000000  0.000000000     0.125000000  0.000000000  0.000000000
     0.000000000  8.000000000  0.000000000     0.000000000  0.125000000  0.000000000
     0.000000000  0.000000000  8.000000000     0.000000000  0.000000000  0.125000000

  length of vectors
     8.000000000  8.000000000  8.000000000     0.125000000  0.125000000  0.125000000


 FORCES acting on ions
    electron-ion (+dipol)            ewald-force                    non-local-force                 convergence-correction
 -----------------------------------------------------------------------------------------------
   -.352E-14 0.157E-14 -.158E-13   0.273E-13 0.178E-14 0.189E-14   -.397E-22 -.265E-22 -.794E-22   -.694E-13 -.779E-12 -.480E-12
   -.165E+03 -.165E+03 -.165E+03   0.168E+03 0.168E+03 0.168E+03   -.333E+01 -.333E+01 -.333E+01   0.790E-02 0.790E-02 0.790E-02
   0.165E+03 0.165E+03 -.165E+03   -.168E+03 -.168E+03 0.168E+03   0.333E+01 0.333E+01 -.333E+01   -.790E-02 -.790E-02 0.790E-02
   0.165E+03 -.165E+03 0.165E+03   -.168E+03 0.168E+03 -.168E+03   0.333E+01 -.333E+01 0.333E+01   -.790E-02 0.790E-02 -.790E-02
   -.165E+03 0.165E+03 0.165E+03   0.168E+03 -.168E+03 -.168E+03   -.333E+01 0.333E+01 0.333E+01   0.790E-02 -.790E-02 -.790E-02
 -----------------------------------------------------------------------------------------------
   0.206E-07 0.206E-07 -.444E-07   0.284E-13 0.000E+00 -.284E-13   0.000E+00 0.888E-15 0.444E-15   -.746E-12 -.276E-11 -.389E-11
 
 
 POSITION                                       TOTAL-FORCE (eV/Angst)
 -----------------------------------------------------------------------------------
      0.00000      0.00000      0.00000         0.000000      0.000000      0.000000
      1.02578      1.02578      1.02578        -0.005993     -0.005993     -0.005993
      6.97422      6.97422      1.02578         0.005993      0.005993     -0.005993
      6.97422      1.02578      6.97422         0.005993     -0.005993      0.005993
      1.02578      6.97422      6.97422        -0.005993      0.005993      0.005993
 -----------------------------------------------------------------------------------
    total drift:                                0.000000      0.000000      0.000000


--------------------------------------------------------------------------------------------------------



  FREE ENERGIE OF THE ION-ELECTRON SYSTEM (eV)
  ---------------------------------------------------
  free  energy   TOTEN  =       -17.426404 eV

  energy  without entropy=      -17.426404  energy(sigma->0) =      -17.426404
 
 d Force = 0.2453043E-03[ 0.822E-04, 0.408E-03]  d Energy = 0.2873712E-03-0.421E-04
 d Force =-0.2303631E+01[-0.231E+01,-0.230E+01]  d Ewald  =-0.2303630E+01-0.166E-05


--------------------------------------------------------------------------------------------------------


    POTLOK:  cpu time    0.45: real time    0.45


--------------------------------------------------------------------------------------------------------




--------------------------------------------------------------------------------------------------------


  
 reached required accuracy - stopping structural energy minimisation
 writing wavefunctions
     LOOP+:  cpu time    4.94: real time    5.12
    4ORBIT:  cpu time    0.00: real time    0.00

 total amount of memory used by VASP on root node    58007. kBytes
========================================================================

   base      :      30000. kBytes
   nonl-proj :        962. kBytes
   fftplans  :       9204. kBytes
   grid      :      16334. kBytes
   one-center:         15. kBytes
   wavefun   :       1492. kBytes
 
  
  
 General timing and accounting informations for this job:
 ========================================================
  
                  Total CPU time used (sec):       25.857
                            User time (sec):       25.566
                          System time (sec):        0.291
                         Elapsed time (sec):       26.972
  
                   Maximum memory used (kb):           0.
                   Average memory used (kb):           0.
  
                          Minor page faults:        80720
                          Major page faults:            0
                 Voluntary context switches:         2247
