<?xml version="1.0" encoding="ISO-8859-1"?>
<modeling>
 <generator>
  <i name="program" type="string">vasp </i>
  <i name="version" type="string">5.2.12  </i>
  <i name="subversion" type="string">11Nov11 complex                                                      parallel </i>
  <i name="platform" type="string">LinuxIFC </i>
  <i name="date" type="string">2012 10 31 </i>
  <i name="time" type="string">21:35:03 </i>
 </generator>
 <incar>
  <i type="string" name="PREC">normal</i>
  <i type="int" name="IBRION">     2</i>
  <i type="int" name="NSW">    10</i>
  <i name="ENCUT">    250.00000000</i>
  <i type="int" name="ISMEAR">     0</i>
 </incar>
 <kpoints>
  <generation param="Monkhorst-Pack">
   <v type="int" name="divisions">       1        1        1 </v>
   <v name="usershift">      0.00000000       0.00000000       0.00000000 </v>
   <v name="genvec1">      1.00000000       0.00000000       0.00000000 </v>
   <v name="genvec2">      0.00000000       1.00000000       0.00000000 </v>
   <v name="genvec3">      0.00000000       0.00000000       1.00000000 </v>
   <v name="shift">      0.00000000       0.00000000       0.00000000 </v>
  </generation>
  <varray name="kpointlist" >
   <v>       0.00000000       0.00000000       0.00000000 </v>
  </varray>
  <varray name="weights" >
   <v>       1.00000000 </v>
  </varray>
 </kpoints>
 <parameters>
  <separator name="general" >
   <i type="string" name="SYSTEM">unknown system</i>
   <i type="logical" name="LCOMPAT"> F  </i>
  </separator>
  <separator name="electronic" >
   <i type="string" name="PREC">normal</i>
   <i name="ENMAX">    250.00000000</i>
   <i name="ENAUG">    644.87300000</i>
   <i name="EDIFF">      0.00010000</i>
   <i type="int" name="IALGO">    38</i>
   <i type="int" name="IWAVPR">    11</i>
   <i type="int" name="NBANDS">    20</i>
   <i name="NELECT">     32.00000000</i>
   <i type="int" name="TURBO">     0</i>
   <i type="int" name="IRESTART">     0</i>
   <i type="int" name="NREBOOT">     0</i>
   <i type="int" name="NMIN">     0</i>
   <i name="EREF">      0.00000000</i>
   <separator name="electronic smearing" >
    <i type="int" name="ISMEAR">     0</i>
    <i name="SIGMA">      0.20000000</i>
    <i name="KSPACING">      0.50000000</i>
    <i type="logical" name="KGAMMA"> T  </i>
   </separator>
   <separator name="electronic projectors" >
    <i type="logical" name="LREAL"> F  </i>
    <v name="ROPT">      0.00000000      0.00000000</v>
    <i type="int" name="LMAXPAW">  -100</i>
    <i type="int" name="LMAXMIX">     2</i>
    <i type="logical" name="NLSPLINE"> F  </i>
   </separator>
   <separator name="electronic startup" >
    <i type="int" name="ISTART">     0</i>
    <i type="int" name="ICHARG">     2</i>
    <i type="int" name="INIWAV">     1</i>
   </separator>
   <separator name="electronic spin" >
    <i type="int" name="ISPIN">     1</i>
    <i type="logical" name="LNONCOLLINEAR"> F  </i>
    <v name="MAGMOM">      1.00000000      1.00000000      1.00000000      1.00000000      1.00000000</v>
    <i name="NUPDOWN">     -1.00000000</i>
    <i type="logical" name="LSORBIT"> F  </i>
    <v name="SAXIS">      0.00000000      0.00000000      1.00000000</v>
    <i type="logical" name="LSPIRAL"> F  </i>
    <v name="QSPIRAL">      0.00000000      0.00000000      0.00000000</v>
    <i type="logical" name="LZEROZ"> F  </i>
   </separator>
   <separator name="electronic exchange-correlation" >
    <i type="logical" name="LASPH"> F  </i>
    <i type="logical" name="LMETAGGA"> F  </i>
   </separator>
   <separator name="electronic convergence" >
    <i type="int" name="NELM">    60</i>
    <i type="int" name="NELMDL">    -5</i>
    <i type="int" name="NELMIN">     2</i>
    <i name="ENINI">    250.00000000</i>
    <separator name="electronic convergence detail" >
     <i type="logical" name="LDIAG"> T  </i>
     <i type="logical" name="LSUBROT"> T  </i>
     <i name="WEIMIN">      0.00100000</i>
     <i name="EBREAK">      0.00000125</i>
     <i name="DEPER">      0.30000000</i>
     <i type="int" name="NRMM">     4</i>
     <i name="TIME">      0.40000000</i>
    </separator>
   </separator>
   <separator name="electronic mixer" >
    <i name="AMIX">      0.40000000</i>
    <i name="BMIX">      1.00000000</i>
    <i name="AMIN">      0.10000000</i>
    <i name="AMIX_MAG">      1.60000000</i>
    <i name="BMIX_MAG">      1.00000000</i>
    <separator name="electronic mixer details" >
     <i type="int" name="IMIX">     4</i>
     <i type="int" name="MAXMIX">   -45</i>
     <i name="WC">    100.00000000</i>
     <i type="int" name="INIMIX">     1</i>
     <i type="int" name="MIXPRE">     1</i>
     <i type="int" name="MREMOVE">     5</i>
    </separator>
   </separator>
   <separator name="electronic dipolcorrection" >
    <i type="logical" name="LDIPOL"> F  </i>
    <i type="logical" name="LMONO"> F  </i>
    <i type="int" name="IDIPOL">     0</i>
    <i name="EPSILON">      1.00000000</i>
    <v name="DIPOL">   -100.00000000   -100.00000000   -100.00000000</v>
    <i name="EFIELD">      0.00000000</i>
   </separator>
  </separator>
  <separator name="grids" >
   <i type="int" name="NGX">    32</i>
   <i type="int" name="NGY">    32</i>
   <i type="int" name="NGZ">    32</i>
   <i type="int" name="NGXF">    64</i>
   <i type="int" name="NGYF">    64</i>
   <i type="int" name="NGZF">    64</i>
   <i type="logical" name="ADDGRID"> F  </i>
  </separator>
  <separator name="ionic" >
   <i type="int" name="NSW">    10</i>
   <i type="int" name="IBRION">     2</i>
   <i type="int" name="ISIF">     2</i>
   <i name="PSTRESS">      0.00000000</i>
   <i name="EDIFFG">      0.00100000</i>
   <i type="int" name="NFREE">     1</i>
   <i name="POTIM">      0.50000000</i>
   <i name="SMASS">     -3.00000000</i>
   <i name="SCALEE">      1.00000000</i>
  </separator>
  <separator name="ionic md" >
   <i name="TEBEG">      0.00010000</i>
   <i name="TEEND">      0.00010000</i>
   <i type="int" name="NBLOCK">     1</i>
   <i type="int" name="KBLOCK">    10</i>
   <i type="int" name="NPACO">   256</i>
   <i name="APACO">     16.00000000</i>
  </separator>
  <separator name="symmetry" >
   <i type="int" name="ISYM">     2</i>
   <i name="SYMPREC">      0.00001000</i>
  </separator>
  <separator name="dos" >
   <i type="logical" name="LORBIT"> F  </i>
   <v name="RWIGS">     -1.00000000     -1.00000000</v>
   <i type="int" name="NEDOS">   301</i>
   <i name="EMIN">     10.00000000</i>
   <i name="EMAX">    -10.00000000</i>
   <i name="EFERMI">      0.00000000</i>
  </separator>
  <separator name="writing" >
   <i type="int" name="NWRITE">     2</i>
   <i type="logical" name="LWAVE"> T  </i>
   <i type="logical" name="LCHARG"> T  </i>
   <i type="logical" name="LPARD"> F  </i>
   <i type="logical" name="LVTOT"> F  </i>
   <i type="logical" name="LVHAR"> F  </i>
   <i type="logical" name="LELF"> F  </i>
   <i type="logical" name="LOPTICS"> F  </i>
   <v name="STM">      0.00000000      0.00000000      0.00000000      0.00000000      0.00000000      0.00000000      0.00000000</v>
  </separator>
  <separator name="performance" >
   <i type="int" name="NPAR">     1</i>
   <i type="int" name="NSIM">     4</i>
   <i type="int" name="NBLK">    -1</i>
   <i type="logical" name="LPLANE"> T  </i>
   <i type="logical" name="LSCALAPACK"> F  </i>
   <i type="logical" name="LSCAAWARE"> F  </i>
   <i type="logical" name="LSCALU"> F  </i>
   <i type="logical" name="LASYNC"> F  </i>
   <i type="logical" name="LORBITALREAL"> F  </i>
  </separator>
  <separator name="miscellaneous" >
   <i type="int" name="IDIOT">     3</i>
   <i type="logical" name="LMUSIC"> F  </i>
   <v name="POMASS">     12.01100000     35.45300000</v>
   <v name="DARWINR">      0.00000000      0.00000000</v>
   <v name="DARWINV">      1.00000000      1.00000000</v>
   <i type="logical" name="LCORR"> T  </i>
  </separator>
  <i type="logical" name="GGA_COMPAT"> T  </i>
  <i type="logical" name="LBERRY"> F  </i>
  <i type="int" name="ICORELEVEL">     0</i>
  <i type="logical" name="LDAU"> F  </i>
  <i type="int" name="I_CONSTRAINED_M">     0</i>
  <separator name="electronic exchange-correlation" >
   <i type="string" name="GGA">--</i>
   <i type="int" name="VOSKOWN">     0</i>
   <i type="logical" name="LHFCALC"> F  </i>
   <i type="string" name="PRECFOCK"></i>
   <i type="logical" name="LHFONE"> F  </i>
   <i type="logical" name="LRHFCALC"> F  </i>
   <i type="logical" name="LTHOMAS"> F  </i>
   <i type="logical" name="LMODELHF"> F  </i>
   <i name="ENCUT4O">     -1.00000000</i>
   <i type="int" name="EXXOEP">     0</i>
   <i type="int" name="FOURORBIT">     0</i>
   <i name="AEXX">      0.00000000</i>
   <i name="HFALPHA">      0.00000000</i>
   <i name="ALDAX">      1.00000000</i>
   <i name="AGGAX">      1.00000000</i>
   <i name="ALDAC">      1.00000000</i>
   <i name="AGGAC">      1.00000000</i>
   <i type="int" name="NKREDX">     1</i>
   <i type="int" name="NKREDY">     1</i>
   <i type="int" name="NKREDZ">     1</i>
   <i type="logical" name="SHIFTRED"> F  </i>
   <i type="logical" name="ODDONLY"> F  </i>
   <i type="logical" name="EVENONLY"> F  </i>
   <i type="int" name="LMAXFOCK">     0</i>
   <i type="int" name="NMAXFOCKAE">     0</i>
   <i type="logical" name="LFOCKAEDFT"> F  </i>
   <i name="HFSCREEN">      0.00000000</i>
   <i name="HFSCREENC">      0.00000000</i>
  </separator>
  <separator name="vdW DFT" >
   <i type="logical" name="LUSE_VDW"> F  </i>
   <i name="Zab_VDW">     -0.84910000</i>
   <i name="PARAM1">      0.12340000</i>
   <i name="PARAM2">      1.00000000</i>
   <i name="PARAM3">      0.00000000</i>
  </separator>
  <separator name="model GW" >
   <i type="int" name="MODEL_GW">     0</i>
   <i name="MODEL_EPS0">     61.44000000</i>
   <i name="MODEL_ALPHA">      1.00000000</i>
  </separator>
  <separator name="linear response parameters" >
   <i type="logical" name="LEPSILON"> F  </i>
   <i type="logical" name="LRPA"> F  </i>
   <i type="logical" name="LNABLA"> F  </i>
   <i type="logical" name="LVEL"> F  </i>
   <i type="int" name="KINTER">     0</i>
   <i name="CSHIFT">      0.10000000</i>
   <i name="OMEGAMAX">     -1.00000000</i>
  </separator>
  <separator name="orbital magnetization" >
   <i type="logical" name="NUCIND"> F  </i>
   <v name="MAGPOS">      0.00000000      0.00000000      0.00000000</v>
   <i type="logical" name="LNICSALL"> T  </i>
   <i type="logical" name="ORBITALMAG"> F  </i>
   <i type="logical" name="LMAGBLOCH"> F  </i>
   <i type="logical" name="LCHIMAG"> F  </i>
   <i type="logical" name="LGAUGE"> T  </i>
   <i type="int" name="MAGATOM">     0</i>
   <v name="MAGDIPOL">      0.00000000      0.00000000      0.00000000</v>
   <v name="AVECCONST">      0.00000000      0.00000000      0.00000000</v>
  </separator>
  <separator name="response functions" >
   <i type="logical" name="LADDER"> F  </i>
   <i type="logical" name="LHARTREE"> T  </i>
   <i type="int" name="IBSE">     0</i>
   <i type="logical" name="LTCTE"> F  </i>
   <i type="logical" name="LTETE"> F  </i>
   <i type="logical" name="LFXCEPS"> F  </i>
   <i type="logical" name="L2ORDER"> F  </i>
   <i type="logical" name="LUSEW"> F  </i>
   <i name="ENCUTGW">     -2.00000000</i>
   <i name="ENCUTGWSOFT">     -2.00000000</i>
   <i name="ENCUTLF">     -1.00000000</i>
   <i type="int" name="LMAXMP2">    -1</i>
   <i name="SCISSOR">      0.00000000</i>
   <i type="int" name="NOMEGA">     0</i>
   <i type="int" name="NOMEGAR">     0</i>
   <i type="int" name="NBANDSGW">    -1</i>
   <i type="int" name="NBANDSO">    -1</i>
   <i type="int" name="NBANDSV">    -1</i>
   <i name="OPTEMAX">      0.00000000</i>
   <i type="int" name="NELM">     1</i>
   <i type="int" name="DIM">     3</i>
   <i type="int" name="ANTIRES">     0</i>
   <i name="OMEGAMAX">    -30.00000000</i>
   <i name="OMEGATL">   -200.00000000</i>
   <i type="int" name="OMEGAGRID">     0</i>
   <i name="CSHIFT">     -0.10000000</i>
   <i type="logical" name="SELFENERGY"> F  </i>
   <i type="logical" name="LSPECTRAL"> F  </i>
   <i type="logical" name="ODDONLYGW"> F  </i>
   <i type="logical" name="EVENONLYGW"> F  </i>
   <i type="int" name="NKREDLFX">     1</i>
   <i type="int" name="NKREDLFY">     1</i>
   <i type="int" name="NKREDLFZ">     1</i>
   <i type="int" name="MAXMEM">  1800</i>
   <i type="int" name="TELESCOPE">     0</i>
  </separator>
 </parameters>
 <atominfo>
  <atoms>       5 </atoms>
  <types>       2 </types>
  <array name="atoms" >
   <dimension dim="1">ion</dimension>
   <field type="string">element</field>
   <field type="int">atomtype</field>
   <set>
    <rc><c>C </c><c>   1</c></rc>
    <rc><c>Cl</c><c>   2</c></rc>
    <rc><c>Cl</c><c>   2</c></rc>
    <rc><c>Cl</c><c>   2</c></rc>
    <rc><c>Cl</c><c>   2</c></rc>
   </set>
  </array>
  <array name="atomtypes" >
   <dimension dim="1">type</dimension>
   <field type="int">atomspertype</field>
   <field type="string">element</field>
   <field>mass</field>
   <field>valence</field>
   <field type="string">pseudopotential</field>
   <set>
    <rc><c>   1</c><c>C </c><c>     12.01100000</c><c>      4.00000000</c><c> PAW_PBE C 08Apr2002                    </c></rc>
    <rc><c>   4</c><c>Cl</c><c>     35.45300000</c><c>      7.00000000</c><c>  PAW_PBE Cl 17Jan2003                  </c></rc>
   </set>
  </array>
 </atominfo>
 <structure name="initialpos" >
  <crystal>
   <varray name="basis" >
    <v>       8.00000000       0.00000000       0.00000000 </v>
    <v>       0.00000000       8.00000000       0.00000000 </v>
    <v>       0.00000000       0.00000000       8.00000000 </v>
   </varray>
   <i name="volume">    512.00000000 </i>
   <varray name="rec_basis" >
    <v>       0.12500000       0.00000000       0.00000000 </v>
    <v>       0.00000000       0.12500000       0.00000000 </v>
    <v>       0.00000000       0.00000000       0.12500000 </v>
   </varray>
  </crystal>
  <varray name="positions" >
   <v>       0.00000000       0.00000000       0.00000000 </v>
   <v>       0.12766750       0.12766750       0.12766750 </v>
   <v>       0.87233250       0.87233250       0.12766750 </v>
   <v>       0.87233250       0.12766750       0.87233250 </v>
   <v>       0.12766750       0.87233250       0.87233250 </v>
  </varray>
 </structure>
 <calculation>
  <scstep>
   <time name="dav">    0.55    0.55</time>
   <time name="total">    1.02    1.03</time>
   <energy>
    <i name="alphaZ">      8.81598031 </i>
    <i name="ewald">    -81.24181609 </i>
    <i name="hartreedc">  -1444.11011371 </i>
    <i name="XCdc">     93.81000607 </i>
    <i name="pawpsdc">    831.83787413 </i>
    <i name="pawaedc">   -833.44360687 </i>
    <i name="eentropy">     -0.16386591 </i>
    <i name="bandstr">   -137.28524564 </i>
    <i name="atom">   1785.06109253 </i>
    <i name="e_fr_energy">    223.28030481 </i>
    <i name="e_wo_entrp">    223.44417072 </i>
    <i name="e_0_energy">    223.36223776 </i>
   </energy>
  </scstep>
  <scstep>
   <time name="dav">    0.70    0.70</time>
   <time name="total">    0.70    0.71</time>
   <energy>
    <i name="e_fr_energy">     19.20154328 </i>
    <i name="e_wo_entrp">     19.20154328 </i>
    <i name="e_0_energy">     19.20154328 </i>
   </energy>
  </scstep>
  <scstep>
   <time name="dav">    0.56    0.56</time>
   <time name="total">    0.56    0.57</time>
   <energy>
    <i name="e_fr_energy">    -16.85924134 </i>
    <i name="e_wo_entrp">    -16.85924134 </i>
    <i name="e_0_energy">    -16.85924134 </i>
   </energy>
  </scstep>
  <scstep>
   <time name="dav">    0.56    0.56</time>
   <time name="total">    0.56    0.57</time>
   <energy>
    <i name="e_fr_energy">    -17.72723193 </i>
    <i name="e_wo_entrp">    -17.72723193 </i>
    <i name="e_0_energy">    -17.72723193 </i>
   </energy>
  </scstep>
  <scstep>
   <time name="dav">    0.63    0.63</time>
   <time name="total">    0.74    0.75</time>
   <energy>
    <i name="e_fr_energy">    -17.75820411 </i>
    <i name="e_wo_entrp">    -17.75820411 </i>
    <i name="e_0_energy">    -17.75820411 </i>
   </energy>
  </scstep>
  <scstep>
   <time name="dav">    0.55    0.55</time>
   <time name="total">    1.12    1.13</time>
   <energy>
    <i name="e_fr_energy">    -17.48676670 </i>
    <i name="e_wo_entrp">    -17.48676670 </i>
    <i name="e_0_energy">    -17.48676670 </i>
   </energy>
  </scstep>
  <scstep>
   <time name="dav">    0.51    0.51</time>
   <time name="total">    1.08    1.09</time>
   <energy>
    <i name="e_fr_energy">    -17.41949651 </i>
    <i name="e_wo_entrp">    -17.41949651 </i>
    <i name="e_0_energy">    -17.41949651 </i>
   </energy>
  </scstep>
  <scstep>
   <time name="dav">    0.58    0.58</time>
   <time name="total">    1.15    1.18</time>
   <energy>
    <i name="e_fr_energy">    -17.41961319 </i>
    <i name="e_wo_entrp">    -17.41961319 </i>
    <i name="e_0_energy">    -17.41961319 </i>
   </energy>
  </scstep>
  <scstep>
   <time name="dav">    0.48    0.48</time>
   <time name="total">    1.05    1.07</time>
   <energy>
    <i name="e_fr_energy">    -17.42079096 </i>
    <i name="e_wo_entrp">    -17.42079096 </i>
    <i name="e_0_energy">    -17.42079096 </i>
   </energy>
  </scstep>
  <scstep>
   <time name="dav">    0.35    0.35</time>
   <time name="total">    0.93    0.95</time>
   <energy>
    <i name="e_fr_energy">    -17.42167858 </i>
    <i name="e_wo_entrp">    -17.42167858 </i>
    <i name="e_0_energy">    -17.42167858 </i>
   </energy>
  </scstep>
  <scstep>
   <time name="dav">    0.41    0.41</time>
   <time name="total">    0.99    1.00</time>
   <energy>
    <i name="e_fr_energy">    -17.42261788 </i>
    <i name="e_wo_entrp">    -17.42261788 </i>
    <i name="e_0_energy">    -17.42261788 </i>
   </energy>
  </scstep>
  <scstep>
   <time name="dav">    0.35    0.35</time>
   <time name="total">    0.92    0.93</time>
   <energy>
    <i name="e_fr_energy">    -17.42326786 </i>
    <i name="e_wo_entrp">    -17.42326786 </i>
    <i name="e_0_energy">    -17.42326786 </i>
   </energy>
  </scstep>
  <scstep>
   <time name="dav">    0.35    0.35</time>
   <time name="total">    0.81    0.83</time>
   <energy>
    <i name="alphaZ">      8.81598031 </i>
    <i name="ewald">    -81.24181609 </i>
    <i name="hartreedc">  -1454.52214627 </i>
    <i name="XCdc">     94.74118868 </i>
    <i name="pawpsdc">    917.02604917 </i>
    <i name="pawaedc">   -919.07153512 </i>
    <i name="eentropy">      0.00000000 </i>
    <i name="bandstr">   -368.23217472 </i>
    <i name="atom">   1785.06109253 </i>
    <i name="e_fr_energy">    -17.42336152 </i>
    <i name="e_wo_entrp">    -17.42336152 </i>
    <i name="e_0_energy">    -17.42336152 </i>
   </energy>
  </scstep>
  <parameters_embedded>
   <separator name="dft+d2" >
    <i type="logical" name="LVDW"> F  </i>
   </separator>
  </parameters_embedded>
  <structure>
   <crystal>
    <varray name="basis" >
     <v>       8.00000000       0.00000000       0.00000000 </v>
     <v>       0.00000000       8.00000000       0.00000000 </v>
     <v>       0.00000000       0.00000000       8.00000000 </v>
    </varray>
    <i name="volume">    512.00000000 </i>
    <varray name="rec_basis" >
     <v>       0.12500000       0.00000000       0.00000000 </v>
     <v>       0.00000000       0.12500000       0.00000000 </v>
     <v>       0.00000000       0.00000000       0.12500000 </v>
    </varray>
   </crystal>
   <varray name="positions" >
    <v>       0.00000000       0.00000000       0.00000000 </v>
    <v>       0.12766750       0.12766750       0.12766750 </v>
    <v>       0.87233250       0.87233250       0.12766750 </v>
    <v>       0.87233250       0.12766750       0.87233250 </v>
    <v>       0.12766750       0.87233250       0.87233250 </v>
   </varray>
  </structure>
  <varray name="forces" >
   <v>       0.00000000       0.00000000       0.00000000 </v>
   <v>       0.11578362       0.11578362       0.11578362 </v>
   <v>      -0.11578362      -0.11578362       0.11578362 </v>
   <v>      -0.11578362       0.11578362      -0.11578362 </v>
   <v>       0.11578362      -0.11578362      -0.11578362 </v>
  </varray>
  <varray name="stress" >
   <v>      -9.47952076       0.00000000       0.00000000 </v>
   <v>       0.00000000      -9.47952076       0.00000000 </v>
   <v>       0.00000000       0.00000000      -9.47952076 </v>
  </varray>
  <energy>
   <i name="e_fr_energy">    -17.42336152 </i>
   <i name="e_wo_entrp">    -17.42336152 </i>
   <i name="e_0_energy">      0.00000000 </i>
  </energy>
  <time name="totalsc">   13.79   14.19</time>
 </calculation>
 <calculation>
  <scstep>
   <time name="dav">    0.50    0.50</time>
   <time name="total">    1.07    1.08</time>
   <energy>
    <i name="alphaZ">      8.81598031 </i>
    <i name="ewald">    -92.55982717 </i>
    <i name="hartreedc">  -1444.28775722 </i>
    <i name="XCdc">     94.61787501 </i>
    <i name="pawpsdc">    917.05265055 </i>
    <i name="pawaedc">   -919.09815929 </i>
    <i name="eentropy">      0.00000000 </i>
    <i name="bandstr">   -367.02587466 </i>
    <i name="atom">   1785.06109253 </i>
    <i name="e_fr_energy">    -17.42401993 </i>
    <i name="e_wo_entrp">    -17.42401993 </i>
    <i name="e_0_energy">    -17.42401993 </i>
   </energy>
  </scstep>
  <scstep>
   <time name="dav">    0.54    0.54</time>
   <time name="total">    1.12    1.12</time>
   <energy>
    <i name="e_fr_energy">    -17.42624154 </i>
    <i name="e_wo_entrp">    -17.42624154 </i>
    <i name="e_0_energy">    -17.42624154 </i>
   </energy>
  </scstep>
  <scstep>
   <time name="dav">    0.66    0.66</time>
   <time name="total">    1.23    1.24</time>
   <energy>
    <i name="e_fr_energy">    -17.42612529 </i>
    <i name="e_wo_entrp">    -17.42612529 </i>
    <i name="e_0_energy">    -17.42612529 </i>
   </energy>
  </scstep>
  <scstep>
   <time name="dav">    0.40    0.40</time>
   <time name="total">    0.89    0.90</time>
   <energy>
    <i name="alphaZ">      8.81598031 </i>
    <i name="ewald">    -92.55982717 </i>
    <i name="hartreedc">  -1443.82251045 </i>
    <i name="XCdc">     94.60895493 </i>
    <i name="pawpsdc">    914.87072522 </i>
    <i name="pawaedc">   -916.89615334 </i>
    <i name="eentropy">      0.00000000 </i>
    <i name="bandstr">   -367.50437854 </i>
    <i name="atom">   1785.06109253 </i>
    <i name="e_fr_energy">    -17.42611650 </i>
    <i name="e_wo_entrp">    -17.42611650 </i>
    <i name="e_0_energy">    -17.42611650 </i>
   </energy>
  </scstep>
  <structure>
   <crystal>
    <varray name="basis" >
     <v>       8.00000000       0.00000000       0.00000000 </v>
     <v>       0.00000000       8.00000000       0.00000000 </v>
     <v>       0.00000000       0.00000000       8.00000000 </v>
    </varray>
    <i name="volume">    512.00000000 </i>
    <varray name="rec_basis" >
     <v>       0.12500000       0.00000000       0.00000000 </v>
     <v>       0.00000000       0.12500000       0.00000000 </v>
     <v>       0.00000000       0.00000000       0.12500000 </v>
    </varray>
   </crystal>
   <varray name="positions" >
    <v>       0.00000000       0.00000000       0.00000000 </v>
    <v>       0.12836571       0.12836571       0.12836571 </v>
    <v>       0.87163429       0.87163429       0.12836571 </v>
    <v>       0.87163429       0.12836571       0.87163429 </v>
    <v>       0.12836571       0.87163429       0.87163429 </v>
   </varray>
  </structure>
  <varray name="forces" >
   <v>       0.00000000       0.00000000       0.00000000 </v>
   <v>      -0.02978212      -0.02978212      -0.02978212 </v>
   <v>       0.02978212       0.02978212      -0.02978212 </v>
   <v>       0.02978212      -0.02978212       0.02978212 </v>
   <v>      -0.02978212       0.02978212       0.02978212 </v>
  </varray>
  <varray name="stress" >
   <v>     -11.47396374       0.00000000       0.00000000 </v>
   <v>       0.00000000     -11.47396374       0.00000000 </v>
   <v>       0.00000000       0.00000000     -11.47396374 </v>
  </varray>
  <energy>
   <i name="e_fr_energy">    -17.42611650 </i>
   <i name="e_wo_entrp">    -17.42611650 </i>
   <i name="e_0_energy">      0.00000000 </i>
  </energy>
  <time name="totalsc">    6.13    6.19</time>
 </calculation>
 <calculation>
  <scstep>
   <time name="dav">    0.58    0.58</time>
   <time name="total">    1.20    1.20</time>
   <energy>
    <i name="alphaZ">      8.81598031 </i>
    <i name="ewald">    -90.25619766 </i>
    <i name="hartreedc">  -1445.87522734 </i>
    <i name="XCdc">     94.63314387 </i>
    <i name="pawpsdc">    914.43755842 </i>
    <i name="pawaedc">   -916.45833429 </i>
    <i name="eentropy">      0.00000000 </i>
    <i name="bandstr">   -367.78432850 </i>
    <i name="atom">   1785.06109253 </i>
    <i name="e_fr_energy">    -17.42631266 </i>
    <i name="e_wo_entrp">    -17.42631266 </i>
    <i name="e_0_energy">    -17.42631266 </i>
   </energy>
  </scstep>
  <scstep>
   <time name="dav">    0.63    0.63</time>
   <time name="total">    1.25    1.25</time>
   <energy>
    <i name="e_fr_energy">    -17.42641008 </i>
    <i name="e_wo_entrp">    -17.42641008 </i>
    <i name="e_0_energy">    -17.42641008 </i>
   </energy>
  </scstep>
  <scstep>
   <time name="dav">    0.40    0.40</time>
   <time name="total">    0.91    0.94</time>
   <energy>
    <i name="alphaZ">      8.81598031 </i>
    <i name="ewald">    -90.25619766 </i>
    <i name="hartreedc">  -1445.98764785 </i>
    <i name="XCdc">     94.63494282 </i>
    <i name="pawpsdc">    914.76786336 </i>
    <i name="pawaedc">   -916.79160084 </i>
    <i name="eentropy">      0.00000000 </i>
    <i name="bandstr">   -367.67083655 </i>
    <i name="atom">   1785.06109253 </i>
    <i name="e_fr_energy">    -17.42640388 </i>
    <i name="e_wo_entrp">    -17.42640388 </i>
    <i name="e_0_energy">    -17.42640388 </i>
   </energy>
  </scstep>
  <structure>
   <crystal>
    <varray name="basis" >
     <v>       8.00000000       0.00000000       0.00000000 </v>
     <v>       0.00000000       8.00000000       0.00000000 </v>
     <v>       0.00000000       0.00000000       8.00000000 </v>
    </varray>
    <i name="volume">    512.00000000 </i>
    <varray name="rec_basis" >
     <v>       0.12500000       0.00000000       0.00000000 </v>
     <v>       0.00000000       0.12500000       0.00000000 </v>
     <v>       0.00000000       0.00000000       0.12500000 </v>
    </varray>
   </crystal>
   <varray name="positions" >
    <v>       0.00000000       0.00000000       0.00000000 </v>
    <v>       0.12822286       0.12822286       0.12822286 </v>
    <v>       0.87177714       0.87177714       0.12822286 </v>
    <v>       0.87177714       0.12822286       0.87177714 </v>
    <v>       0.12822286       0.87177714       0.87177714 </v>
   </varray>
  </structure>
  <varray name="forces" >
   <v>       0.00000000       0.00000000       0.00000000 </v>
   <v>      -0.00599285      -0.00599285      -0.00599285 </v>
   <v>       0.00599285       0.00599285      -0.00599285 </v>
   <v>       0.00599285      -0.00599285       0.00599285 </v>
   <v>      -0.00599285       0.00599285       0.00599285 </v>
  </varray>
  <varray name="stress" >
   <v>     -10.96995910       0.00000000       0.00000000 </v>
   <v>       0.00000000     -10.96995910       0.00000000 </v>
   <v>       0.00000000       0.00000000     -10.96995910 </v>
  </varray>
  <energy>
   <i name="e_fr_energy">    -17.42640388 </i>
   <i name="e_wo_entrp">    -17.42640388 </i>
   <i name="e_0_energy">      0.00000000 </i>
  </energy>
  <time name="totalsc">    4.94    5.12</time>
  <eigenvalues>
   <array>
    <dimension dim="1">band</dimension>
    <dimension dim="2">kpoint</dimension>
    <dimension dim="3">spin</dimension>
    <field>eigene</field>
    <field>occ</field>
    <set>
     <set comment="spin 1">
      <set comment="kpoint 1">
       <r>  -23.0759    1.0000 </r>
       <r>  -19.8613    1.0000 </r>
       <r>  -19.8613    1.0000 </r>
       <r>  -19.8613    1.0000 </r>
       <r>  -14.2549    1.0000 </r>
       <r>  -10.9557    1.0000 </r>
       <r>  -10.9557    1.0000 </r>
       <r>  -10.9557    1.0000 </r>
       <r>   -7.5677    1.0000 </r>
       <r>   -7.5677    1.0000 </r>
       <r>   -6.9459    1.0000 </r>
       <r>   -6.9459    1.0000 </r>
       <r>   -6.9459    1.0000 </r>
       <r>   -6.0269    1.0000 </r>
       <r>   -6.0269    1.0000 </r>
       <r>   -6.0269    1.0000 </r>
       <r>   -1.2559    0.0000 </r>
       <r>    0.2905    0.0000 </r>
       <r>    0.2905    0.0000 </r>
       <r>    0.2906    0.0000 </r>
      </set>
     </set>
    </set>
   </array>
  </eigenvalues>
  <separator name="orbital magnetization" >
   <v name="MAGDIPOLOUT">      0.00000000      0.00000000      0.00000000</v>
  </separator>
  <dos>
   <i name="efermi">     -5.00681748 </i>
   <total>
    <array>
     <dimension dim="1">gridpoints</dimension>
     <dimension dim="2">spin</dimension>
     <field>energy</field>
     <field>total</field>
     <field>integrated</field>
     <set>
      <set comment="spin 1">
       <r>   -25.0759     0.0000     0.0000 </r>
       <r>   -24.9847     0.0000     0.0000 </r>
       <r>   -24.8935     0.0000     0.0000 </r>
       <r>   -24.8023     0.0000     0.0000 </r>
       <r>   -24.7110     0.0000     0.0000 </r>
       <r>   -24.6198     0.0000     0.0000 </r>
       <r>   -24.5286     0.0000     0.0000 </r>
       <r>   -24.4374     0.0000     0.0000 </r>
       <r>   -24.3461     0.0000     0.0000 </r>
       <r>   -24.2549     0.0000     0.0000 </r>
       <r>   -24.1637     0.0000     0.0000 </r>
       <r>   -24.0725     0.0000     0.0000 </r>
       <r>   -23.9813     0.0000     0.0000 </r>
       <r>   -23.8900     0.0000     0.0000 </r>
       <r>   -23.7988     0.0000     0.0000 </r>
       <r>   -23.7076     0.0001     0.0000 </r>
       <r>   -23.6164     0.0014     0.0001 </r>
       <r>   -23.5252     0.0149     0.0015 </r>
       <r>   -23.4339     0.1082     0.0114 </r>
       <r>   -23.3427     0.5248     0.0592 </r>
       <r>   -23.2515     1.7014     0.2144 </r>
       <r>   -23.1603     3.6883     0.5509 </r>
       <r>   -23.0690     5.3483     1.0388 </r>
       <r>   -22.9778     5.1887     1.5121 </r>
       <r>   -22.8866     3.3680     1.8193 </r>
       <r>   -22.7954     1.4622     1.9527 </r>
       <r>   -22.7042     0.4244     1.9914 </r>
       <r>   -22.6129     0.0823     1.9989 </r>
       <r>   -22.5217     0.0107     1.9999 </r>
       <r>   -22.4305     0.0009     2.0000 </r>
       <r>   -22.3393     0.0001     2.0000 </r>
       <r>   -22.2480     0.0000     2.0000 </r>
       <r>   -22.1568     0.0000     2.0000 </r>
       <r>   -22.0656     0.0000     2.0000 </r>
       <r>   -21.9744     0.0000     2.0000 </r>
       <r>   -21.8832     0.0000     2.0000 </r>
       <r>   -21.7919     0.0000     2.0000 </r>
       <r>   -21.7007     0.0000     2.0000 </r>
       <r>   -21.6095     0.0000     2.0000 </r>
       <r>   -21.5183     0.0000     2.0000 </r>
       <r>   -21.4271     0.0000     2.0000 </r>
       <r>   -21.3358     0.0000     2.0000 </r>
       <r>   -21.2446     0.0000     2.0000 </r>
       <r>   -21.1534     0.0000     2.0000 </r>
       <r>   -21.0622     0.0000     2.0000 </r>
       <r>   -20.9709     0.0000     2.0000 </r>
       <r>   -20.8797     0.0000     2.0000 </r>
       <r>   -20.7885     0.0000     2.0000 </r>
       <r>   -20.6973     0.0000     2.0000 </r>
       <r>   -20.6061     0.0000     2.0000 </r>
       <r>   -20.5148     0.0001     2.0000 </r>
       <r>   -20.4236     0.0022     2.0002 </r>
       <r>   -20.3324     0.0262     2.0026 </r>
       <r>   -20.2412     0.2094     2.0217 </r>
       <r>   -20.1500     1.1189     2.1238 </r>
       <r>   -20.0587     3.9952     2.4882 </r>
       <r>   -19.9675     9.5366     3.3582 </r>
       <r>   -19.8763    15.2259     4.7471 </r>
       <r>   -19.7851    16.2639     6.2307 </r>
       <r>   -19.6938    11.6234     7.2910 </r>
       <r>   -19.6026     5.5568     7.7979 </r>
       <r>   -19.5114     1.7763     7.9599 </r>
       <r>   -19.4202     0.3794     7.9946 </r>
       <r>   -19.3290     0.0541     7.9995 </r>
       <r>   -19.2377     0.0052     8.0000 </r>
       <r>   -19.1465     0.0003     8.0000 </r>
       <r>   -19.0553     0.0000     8.0000 </r>
       <r>   -18.9641     0.0000     8.0000 </r>
       <r>   -18.8729     0.0000     8.0000 </r>
       <r>   -18.7816     0.0000     8.0000 </r>
       <r>   -18.6904     0.0000     8.0000 </r>
       <r>   -18.5992     0.0000     8.0000 </r>
       <r>   -18.5080     0.0000     8.0000 </r>
       <r>   -18.4167     0.0000     8.0000 </r>
       <r>   -18.3255     0.0000     8.0000 </r>
       <r>   -18.2343     0.0000     8.0000 </r>
       <r>   -18.1431     0.0000     8.0000 </r>
       <r>   -18.0519     0.0000     8.0000 </r>
       <r>   -17.9606     0.0000     8.0000 </r>
       <r>   -17.8694     0.0000     8.0000 </r>
       <r>   -17.7782     0.0000     8.0000 </r>
       <r>   -17.6870     0.0000     8.0000 </r>
       <r>   -17.5957     0.0000     8.0000 </r>
       <r>   -17.5045     0.0000     8.0000 </r>
       <r>   -17.4133     0.0000     8.0000 </r>
       <r>   -17.3221     0.0000     8.0000 </r>
       <r>   -17.2309     0.0000     8.0000 </r>
       <r>   -17.1396     0.0000     8.0000 </r>
       <r>   -17.0484     0.0000     8.0000 </r>
       <r>   -16.9572     0.0000     8.0000 </r>
       <r>   -16.8660     0.0000     8.0000 </r>
       <r>   -16.7748     0.0000     8.0000 </r>
       <r>   -16.6835     0.0000     8.0000 </r>
       <r>   -16.5923     0.0000     8.0000 </r>
       <r>   -16.5011     0.0000     8.0000 </r>
       <r>   -16.4099     0.0000     8.0000 </r>
       <r>   -16.3186     0.0000     8.0000 </r>
       <r>   -16.2274     0.0000     8.0000 </r>
       <r>   -16.1362     0.0000     8.0000 </r>
       <r>   -16.0450     0.0000     8.0000 </r>
       <r>   -15.9538     0.0000     8.0000 </r>
       <r>   -15.8625     0.0000     8.0000 </r>
       <r>   -15.7713     0.0000     8.0000 </r>
       <r>   -15.6801     0.0000     8.0000 </r>
       <r>   -15.5889     0.0000     8.0000 </r>
       <r>   -15.4977     0.0000     8.0000 </r>
       <r>   -15.4064     0.0000     8.0000 </r>
       <r>   -15.3152     0.0000     8.0000 </r>
       <r>   -15.2240     0.0000     8.0000 </r>
       <r>   -15.1328     0.0000     8.0000 </r>
       <r>   -15.0415     0.0000     8.0000 </r>
       <r>   -14.9503     0.0000     8.0000 </r>
       <r>   -14.8591     0.0002     8.0000 </r>
       <r>   -14.7679     0.0029     8.0003 </r>
       <r>   -14.6767     0.0282     8.0029 </r>
       <r>   -14.5854     0.1815     8.0194 </r>
       <r>   -14.4942     0.7801     8.0906 </r>
       <r>   -14.4030     2.2404     8.2950 </r>
       <r>   -14.3118     4.3029     8.6875 </r>
       <r>   -14.2206     5.5286     9.1918 </r>
       <r>   -14.1293     4.7526     9.6253 </r>
       <r>   -14.0381     2.7333     9.8747 </r>
       <r>   -13.9469     1.0513     9.9706 </r>
       <r>   -13.8557     0.2703     9.9952 </r>
       <r>   -13.7644     0.0464     9.9995 </r>
       <r>   -13.6732     0.0053    10.0000 </r>
       <r>   -13.5820     0.0004    10.0000 </r>
       <r>   -13.4908     0.0000    10.0000 </r>
       <r>   -13.3996     0.0000    10.0000 </r>
       <r>   -13.3083     0.0000    10.0000 </r>
       <r>   -13.2171     0.0000    10.0000 </r>
       <r>   -13.1259     0.0000    10.0000 </r>
       <r>   -13.0347     0.0000    10.0000 </r>
       <r>   -12.9434     0.0000    10.0000 </r>
       <r>   -12.8522     0.0000    10.0000 </r>
       <r>   -12.7610     0.0000    10.0000 </r>
       <r>   -12.6698     0.0000    10.0000 </r>
       <r>   -12.5786     0.0000    10.0000 </r>
       <r>   -12.4873     0.0000    10.0000 </r>
       <r>   -12.3961     0.0000    10.0000 </r>
       <r>   -12.3049     0.0000    10.0000 </r>
       <r>   -12.2137     0.0000    10.0000 </r>
       <r>   -12.1225     0.0000    10.0000 </r>
       <r>   -12.0312     0.0000    10.0000 </r>
       <r>   -11.9400     0.0000    10.0000 </r>
       <r>   -11.8488     0.0000    10.0000 </r>
       <r>   -11.7576     0.0000    10.0000 </r>
       <r>   -11.6663     0.0000    10.0000 </r>
       <r>   -11.5751     0.0004    10.0000 </r>
       <r>   -11.4839     0.0058    10.0006 </r>
       <r>   -11.3927     0.0597    10.0060 </r>
       <r>   -11.3015     0.4106    10.0435 </r>
       <r>   -11.2102     1.8874    10.2156 </r>
       <r>   -11.1190     5.7970    10.7444 </r>
       <r>   -11.0278    11.9059    11.8305 </r>
       <r>   -10.9366    16.3573    13.3227 </r>
       <r>   -10.8454    15.0359    14.6943 </r>
       <r>   -10.7541     9.2469    15.5378 </r>
       <r>   -10.6629     3.8035    15.8847 </r>
       <r>   -10.5717     1.0459    15.9801 </r>
       <r>   -10.4805     0.1921    15.9977 </r>
       <r>   -10.3892     0.0236    15.9998 </r>
       <r>   -10.2980     0.0019    16.0000 </r>
       <r>   -10.2068     0.0001    16.0000 </r>
       <r>   -10.1156     0.0000    16.0000 </r>
       <r>   -10.0244     0.0000    16.0000 </r>
       <r>    -9.9331     0.0000    16.0000 </r>
       <r>    -9.8419     0.0000    16.0000 </r>
       <r>    -9.7507     0.0000    16.0000 </r>
       <r>    -9.6595     0.0000    16.0000 </r>
       <r>    -9.5683     0.0000    16.0000 </r>
       <r>    -9.4770     0.0000    16.0000 </r>
       <r>    -9.3858     0.0000    16.0000 </r>
       <r>    -9.2946     0.0000    16.0000 </r>
       <r>    -9.2034     0.0000    16.0000 </r>
       <r>    -9.1121     0.0000    16.0000 </r>
       <r>    -9.0209     0.0000    16.0000 </r>
       <r>    -8.9297     0.0000    16.0000 </r>
       <r>    -8.8385     0.0000    16.0000 </r>
       <r>    -8.7473     0.0000    16.0000 </r>
       <r>    -8.6560     0.0000    16.0000 </r>
       <r>    -8.5648     0.0000    16.0000 </r>
       <r>    -8.4736     0.0000    16.0000 </r>
       <r>    -8.3824     0.0000    16.0000 </r>
       <r>    -8.2911     0.0000    16.0000 </r>
       <r>    -8.1999     0.0002    16.0000 </r>
       <r>    -8.1087     0.0027    16.0003 </r>
       <r>    -8.0175     0.0294    16.0029 </r>
       <r>    -7.9263     0.2140    16.0225 </r>
       <r>    -7.8350     1.0409    16.1174 </r>
       <r>    -7.7438     3.3829    16.4260 </r>
       <r>    -7.6526     7.3512    17.0966 </r>
       <r>    -7.5614    10.6859    18.0714 </r>
       <r>    -7.4702    10.3983    19.0199 </r>
       <r>    -7.3789     6.8269    19.6427 </r>
       <r>    -7.2877     3.3847    19.9515 </r>
       <r>    -7.1965     2.8528    20.2117 </r>
       <r>    -7.1053     6.1942    20.7767 </r>
       <r>    -7.0140    12.1902    21.8887 </r>
       <r>    -6.9228    16.4350    23.3880 </r>
       <r>    -6.8316    14.8482    24.7424 </r>
       <r>    -6.7404     8.9757    25.5612 </r>
       <r>    -6.6492     3.6293    25.8923 </r>
       <r>    -6.5579     0.9862    25.9823 </r>
       <r>    -6.4667     0.2329    26.0035 </r>
       <r>    -6.3755     0.4103    26.0409 </r>
       <r>    -6.2843     1.8120    26.2062 </r>
       <r>    -6.1931     5.6311    26.7199 </r>
       <r>    -6.1018    11.7117    27.7883 </r>
       <r>    -6.0106    16.2944    29.2747 </r>
       <r>    -5.9194    15.1679    30.6583 </r>
       <r>    -5.8282     9.4463    31.5200 </r>
       <r>    -5.7369     3.9348    31.8789 </r>
       <r>    -5.6457     1.0958    31.9789 </r>
       <r>    -5.5545     0.2039    31.9975 </r>
       <r>    -5.4633     0.0253    31.9998 </r>
       <r>    -5.3721     0.0021    32.0000 </r>
       <r>    -5.2808     0.0001    32.0000 </r>
       <r>    -5.1896     0.0000    32.0000 </r>
       <r>    -5.0984     0.0000    32.0000 </r>
       <r>    -5.0072     0.0000    32.0000 </r>
       <r>    -4.9160     0.0000    32.0000 </r>
       <r>    -4.8247     0.0000    32.0000 </r>
       <r>    -4.7335     0.0000    32.0000 </r>
       <r>    -4.6423     0.0000    32.0000 </r>
       <r>    -4.5511     0.0000    32.0000 </r>
       <r>    -4.4598     0.0000    32.0000 </r>
       <r>    -4.3686     0.0000    32.0000 </r>
       <r>    -4.2774     0.0000    32.0000 </r>
       <r>    -4.1862     0.0000    32.0000 </r>
       <r>    -4.0950     0.0000    32.0000 </r>
       <r>    -4.0037     0.0000    32.0000 </r>
       <r>    -3.9125     0.0000    32.0000 </r>
       <r>    -3.8213     0.0000    32.0000 </r>
       <r>    -3.7301     0.0000    32.0000 </r>
       <r>    -3.6389     0.0000    32.0000 </r>
       <r>    -3.5476     0.0000    32.0000 </r>
       <r>    -3.4564     0.0000    32.0000 </r>
       <r>    -3.3652     0.0000    32.0000 </r>
       <r>    -3.2740     0.0000    32.0000 </r>
       <r>    -3.1827     0.0000    32.0000 </r>
       <r>    -3.0915     0.0000    32.0000 </r>
       <r>    -3.0003     0.0000    32.0000 </r>
       <r>    -2.9091     0.0000    32.0000 </r>
       <r>    -2.8179     0.0000    32.0000 </r>
       <r>    -2.7266     0.0000    32.0000 </r>
       <r>    -2.6354     0.0000    32.0000 </r>
       <r>    -2.5442     0.0000    32.0000 </r>
       <r>    -2.4530     0.0000    32.0000 </r>
       <r>    -2.3617     0.0000    32.0000 </r>
       <r>    -2.2705     0.0000    32.0000 </r>
       <r>    -2.1793     0.0000    32.0000 </r>
       <r>    -2.0881     0.0000    32.0000 </r>
       <r>    -1.9969     0.0000    32.0000 </r>
       <r>    -1.9056     0.0000    32.0000 </r>
       <r>    -1.8144     0.0008    32.0001 </r>
       <r>    -1.7232     0.0096    32.0010 </r>
       <r>    -1.6320     0.0755    32.0078 </r>
       <r>    -1.5408     0.3965    32.0440 </r>
       <r>    -1.4495     1.3922    32.1710 </r>
       <r>    -1.3583     3.2678    32.4691 </r>
       <r>    -1.2671     5.1304    32.9371 </r>
       <r>    -1.1759     5.3889    33.4287 </r>
       <r>    -1.0846     3.7872    33.7742 </r>
       <r>    -0.9934     1.7804    33.9366 </r>
       <r>    -0.9022     0.5596    33.9876 </r>
       <r>    -0.8110     0.1175    33.9983 </r>
       <r>    -0.7198     0.0165    33.9999 </r>
       <r>    -0.6285     0.0015    34.0000 </r>
       <r>    -0.5373     0.0001    34.0000 </r>
       <r>    -0.4461     0.0000    34.0000 </r>
       <r>    -0.3549     0.0002    34.0000 </r>
       <r>    -0.2637     0.0028    34.0003 </r>
       <r>    -0.1724     0.0320    34.0032 </r>
       <r>    -0.0812     0.2470    34.0257 </r>
       <r>     0.0100     1.2734    34.1419 </r>
       <r>     0.1012     4.3869    34.5421 </r>
       <r>     0.1925    10.1042    35.4638 </r>
       <r>     0.2837    15.5664    36.8838 </r>
       <r>     0.3749    16.0447    38.3474 </r>
       <r>     0.4661    11.0647    39.3567 </r>
       <r>     0.5573     5.1041    39.8223 </r>
       <r>     0.6486     1.5743    39.9659 </r>
       <r>     0.7398     0.3245    39.9955 </r>
       <r>     0.8310     0.0446    39.9996 </r>
       <r>     0.9222     0.0041    40.0000 </r>
       <r>     1.0134     0.0003    40.0000 </r>
       <r>     1.1047     0.0000    40.0000 </r>
       <r>     1.1959     0.0000    40.0000 </r>
       <r>     1.2871     0.0000    40.0000 </r>
       <r>     1.3783     0.0000    40.0000 </r>
       <r>     1.4696     0.0000    40.0000 </r>
       <r>     1.5608     0.0000    40.0000 </r>
       <r>     1.6520     0.0000    40.0000 </r>
       <r>     1.7432     0.0000    40.0000 </r>
       <r>     1.8344     0.0000    40.0000 </r>
       <r>     1.9257     0.0000    40.0000 </r>
       <r>     2.0169     0.0000    40.0000 </r>
       <r>     2.1081     0.0000    40.0000 </r>
       <r>     2.1993     0.0000    40.0000 </r>
       <r>     2.2906     0.0000    40.0000 </r>
      </set>
     </set>
    </array>
   </total>
  </dos>
 </calculation>
 <structure name="finalpos" >
  <crystal>
   <varray name="basis" >
    <v>       8.00000000       0.00000000       0.00000000 </v>
    <v>       0.00000000       8.00000000       0.00000000 </v>
    <v>       0.00000000       0.00000000       8.00000000 </v>
   </varray>
   <i name="volume">    512.00000000 </i>
   <varray name="rec_basis" >
    <v>       0.12500000       0.00000000       0.00000000 </v>
    <v>       0.00000000       0.12500000       0.00000000 </v>
    <v>       0.00000000       0.00000000       0.12500000 </v>
   </varray>
  </crystal>
  <varray name="positions" >
   <v>       0.00000000       0.00000000       0.00000000 </v>
   <v>       0.12822286       0.12822286       0.12822286 </v>
   <v>       0.87177714       0.87177714       0.12822286 </v>
   <v>       0.87177714       0.12822286       0.87177714 </v>
   <v>       0.12822286       0.87177714       0.87177714 </v>
  </varray>
 </structure>
</modeling>
