unknown system                          
   1.00000000000000     
     8.000000    0.000000    0.000000
     0.000000    8.000000    0.000000
     0.000000    0.000000    8.000000
   H    C 
     6     2
Direct
  0.000000  0.127370  0.144654
  0.889695  0.936315  0.144654
  0.110305  0.936315  0.144654
  0.000000  0.872630  0.855346
  0.889695  0.063685  0.855346
  0.110305  0.063685  0.855346
  0.000000  0.000000  0.095276
  0.000000  0.000000  0.904724
 
   64   64   64
  880.38      833.92      710.90      550.96      395.87      271.77      184.68      127.31      88.937      61.556    
  41.159      26.330      16.404      10.397      6.9377      4.7890      3.2530      2.1154      1.3366     0.85398    
 0.57155     0.40089     0.27757     0.17345     0.96856E-01 0.59346E-01 0.46381E-01 0.33715E-01 0.17590E-01 0.91765E-02
 0.10429E-01 0.13351E-01 0.14149E-01 0.13351E-01 0.10429E-01 0.91765E-02 0.17590E-01 0.33715E-01 0.46381E-01 0.59346E-01
 0.96856E-01 0.17345     0.27757     0.40089     0.57155     0.85398      1.3366      2.1154      3.2530      4.7890    
  6.9377      10.397      16.404      26.330      41.159      61.556      88.937      127.31      184.68      271.77    
  395.87      550.96      710.90      833.92      833.80      790.22      674.79      524.59      378.70      261.62    
  179.02      124.18      87.125      60.429      40.429      25.874      16.156      10.285      6.8917      4.7655    
  3.2400      2.1099      1.3318     0.84579     0.56429     0.39771     0.27425     0.16647     0.90391E-01 0.58112E-01
 0.47413E-01 0.31859E-01 0.14443E-01 0.93626E-02 0.12474E-01 0.12077E-01 0.10144E-01 0.12077E-01 0.12474E-01 0.93626E-02
 0.14443E-01 0.31859E-01 0.47413E-01 0.58112E-01 0.90391E-01 0.16647     0.27425     0.39771     0.56429     0.84579    
  1.3318      2.1099      3.2400      4.7655      6.8917      10.285      16.156      25.874      40.429      60.429    
  87.125      124.18      179.02      261.62      378.70      524.59      674.79      790.22      710.59      674.59    
  579.13      454.54      332.83      234.20      163.49      115.39      81.892      57.103      38.258      24.530    
  15.426      9.9492      6.7455      4.6876      3.1936      2.0851      1.3119     0.82255     0.54618     0.38973    
 0.26600     0.15048     0.75917E-01 0.54953E-01 0.48981E-01 0.27434E-01 0.76100E-02 0.96653E-02 0.16540E-01 0.90150E-02
 0.13043E-02 0.90150E-02 0.16540E-01 0.96653E-02 0.76100E-02 0.27434E-01 0.48981E-01 0.54953E-01 0.75917E-01 0.15048    
 0.26600     0.38973     0.54618     0.82255      1.3119      2.0851      3.1936      4.6876      6.7455      9.9492    
  15.426      24.530      38.258      57.103      81.892      115.39      163.49      234.20      332.83      454.54    
  579.13      674.59      550.65      524.37      454.48      362.66      271.93      197.02      141.72      102.49    
  73.835      51.804      34.773      22.392      14.268      9.3954      6.4813      4.5362      3.0940      2.0188    
  1.2640     0.78638     0.52433     0.37919     0.25546     0.13531     0.63625E-01 0.51202E-01 0.48291E-01 0.23209E-01
 0.27288E-02 0.96203E-02 0.18352E-01 0.57918E-02 -.57185E-02 0.57918E-02 0.18352E-01 0.96203E-02 0.27288E-02 0.23209E-01
 0.48291E-01 0.51202E-01 0.63625E-01 0.13531     0.25546     0.37919     0.52433     0.78638      1.2640      2.0188    
  3.0940      4.5362      6.4813      9.3954      14.268      22.392      34.773      51.804      73.835      102.49    
  141.72      197.02      271.93      362.66      454.48      524.37      395.75      378.65      332.88      272.00    
  210.60      158.29      117.87      87.446      63.860      45.016      30.293      19.679      12.795      8.6520    
  6.0873      4.2893      2.9163      1.8876      1.1754     0.73737     0.50180     0.36536     0.24273     0.12666    
 0.59926E-01 0.48011E-01 0.44323E-01 0.21743E-01 0.37674E-02 0.90198E-02 0.15331E-01 0.36910E-02 -.64207E-02 0.36910E-02
 0.15331E-01 0.90198E-02 0.37674E-02 0.21743E-01 0.44323E-01 0.48011E-01 0.59926E-01 0.12666     0.24273     0.36536    
 0.50180     0.73737      1.1754      1.8876      2.9163      4.2893      6.0873      8.6520      12.795      19.679    
  30.293      45.016      63.860      87.446      117.87      158.29      210.60      272.00      332.88      378.65    
  271.81      261.69      234.31      197.11      158.31      123.62      95.050      71.958      52.998      37.448    
  25.323      16.706      11.165      7.7744      5.5697      3.9342      2.6462      1.6844      1.0454     0.67466    
 0.47507     0.34495     0.22605     0.12255     0.62682E-01 0.45236E-01 0.38547E-01 0.23439E-01 0.98564E-02 0.80037E-02
 0.88060E-02 0.31354E-02 -.13746E-02 0.31354E-02 0.88060E-02 0.80037E-02 0.98564E-02 0.23439E-01 0.38547E-01 0.45236E-01
 0.62682E-01 0.12255     0.22605     0.34495     0.47507     0.67466      1.0454      1.6844      2.6462      3.9342    
  5.5697      7.7744      11.165      16.706      25.323      37.448      52.998      71.958      95.050      123.62    
  158.31      197.11      234.31      261.69      184.72      179.07      163.52      141.69      117.77      94.933    
  74.663      57.145      42.195      29.871      20.406      13.789      9.5292      6.8287      4.9526      3.4791    
  2.2953      1.4306     0.89163     0.60129     0.43961     0.31663     0.20503     0.11698     0.64385E-01 0.41639E-01
 0.33199E-01 0.26238E-01 0.16433E-01 0.69684E-02 0.27738E-02 0.39249E-02 0.53758E-02 0.39249E-02 0.27738E-02 0.69684E-02
 0.16433E-01 0.26238E-01 0.33199E-01 0.41639E-01 0.64385E-01 0.11698     0.20503     0.31663     0.43961     0.60129    
 0.89163      1.4306      2.2953      3.4791      4.9526      6.8287      9.5292      13.789      20.406      29.871    
  42.195      57.145      74.663      94.933      117.77      141.69      163.52      179.07      127.36      124.19    
  115.29      102.26      87.091      71.573      56.874      43.621      32.200      22.924      15.958      11.144    
  7.9894      5.8660      4.2697      2.9565      1.9049      1.1691     0.74284     0.52680     0.39704     0.28355    
 0.18107     0.10517     0.59221E-01 0.36618E-01 0.29650E-01 0.27539E-01 0.19443E-01 0.65019E-02 0.56809E-03 0.54209E-02
 0.98058E-02 0.54209E-02 0.56809E-03 0.65019E-02 0.19443E-01 0.27539E-01 0.29650E-01 0.36618E-01 0.59221E-01 0.10517    
 0.18107     0.28355     0.39704     0.52680     0.74284      1.1691      1.9049      2.9565      4.2697      5.8660    
  7.9894      11.144      15.958      22.924      32.200      43.621      56.874      71.573      87.091      102.26    
  115.29      124.19      89.209      87.297      81.811      73.454      63.242      52.285      41.565      31.826    
  23.558      17.014      12.198      8.8626      6.5813      4.9127      3.5570      2.4160      1.5286     0.94221    
 0.62292     0.46291     0.35485     0.25051     0.15530     0.86466E-01 0.47540E-01 0.31360E-01 0.28075E-01 0.26451E-01
 0.18431E-01 0.70008E-02 0.22856E-02 0.65268E-02 0.10170E-01 0.65268E-02 0.22856E-02 0.70008E-02 0.18431E-01 0.26451E-01
 0.28075E-01 0.31360E-01 0.47540E-01 0.86466E-01 0.15530     0.25051     0.35485     0.46291     0.62292     0.94221    
  1.5286      2.4160      3.5570      4.9127      6.5813      8.8626      12.198      17.014      23.558      31.826    
  41.565      52.285      63.242      73.454      81.811      87.297      62.239      60.948      57.208      51.418    
  44.235      36.471      28.919      22.189      16.627      12.329      9.1867      6.9491      5.3041      3.9844    
  2.8529      1.9083      1.2076     0.76984     0.53849     0.41475     0.31818     0.21916     0.12823     0.64804E-01
 0.34751E-01 0.27762E-01 0.27751E-01 0.24074E-01 0.15786E-01 0.80320E-02 0.50819E-02 0.61743E-02 0.72818E-02 0.61743E-02
 0.50819E-02 0.80320E-02 0.15786E-01 0.24074E-01 0.27751E-01 0.27762E-01 0.34751E-01 0.64804E-01 0.12823     0.21916    
 0.31818     0.41475     0.53849     0.76984      1.2076      1.9083      2.8529      3.9844      5.3041      6.9491    
  9.1867      12.329      16.627      22.189      28.919      36.471      44.235      51.418      57.208      60.948    
  42.262      41.321      38.614      34.491      29.491      24.237      19.281      14.993      11.528      8.8679    
  6.8791      5.3715      4.1563      3.1091      2.2006      1.4694     0.95496     0.64563     0.47835     0.37546    
 0.28325     0.18711     0.10160     0.46629E-01 0.26493E-01 0.26501E-01 0.27552E-01 0.21855E-01 0.13675E-01 0.84255E-02
 0.60272E-02 0.43451E-02 0.35165E-02 0.43451E-02 0.60272E-02 0.84255E-02 0.13675E-01 0.21855E-01 0.27552E-01 0.26501E-01
 0.26493E-01 0.46629E-01 0.10160     0.18711     0.28325     0.37546     0.47835     0.64563     0.95496      1.4694    
  2.2006      3.1091      4.1563      5.3715      6.8791      8.8679      11.528      14.993      19.281      24.237    
  29.491      34.491      38.614      41.321      27.702      27.017      25.091      22.263      18.984      15.687    
  12.688      10.146      8.0888      6.4604      5.1620      4.0864      3.1528      2.3316      1.6414      1.1150    
 0.76099     0.54878     0.42312     0.33076     0.24108     0.15165     0.78347E-01 0.36252E-01 0.24387E-01 0.26659E-01
 0.26712E-01 0.20160E-01 0.12264E-01 0.74185E-02 0.47259E-02 0.23657E-02 0.12036E-02 0.23657E-02 0.47259E-02 0.74185E-02
 0.12264E-01 0.20160E-01 0.26712E-01 0.26659E-01 0.24387E-01 0.36252E-01 0.78347E-01 0.15165     0.24108     0.33076    
 0.42312     0.54878     0.76099      1.1150      1.6414      2.3316      3.1528      4.0864      5.1620      6.4604    
  8.0888      10.146      12.688      15.687      18.984      22.263      25.091      27.017      17.836      17.372    
  16.093      14.286      12.283      10.348      8.6216      7.1432      5.8902      4.8170      3.8794      3.0482    
  2.3159      1.6941      1.2009     0.84389     0.60856     0.46023     0.35793     0.27099     0.18789     0.11381    
 0.60094E-01 0.32530E-01 0.25707E-01 0.26794E-01 0.25083E-01 0.18335E-01 0.10590E-01 0.54695E-02 0.29793E-02 0.16778E-02
 0.11792E-02 0.16778E-02 0.29793E-02 0.54695E-02 0.10590E-01 0.18335E-01 0.25083E-01 0.26794E-01 0.25707E-01 0.32530E-01
 0.60094E-01 0.11381     0.18789     0.27099     0.35793     0.46023     0.60856     0.84389      1.2009      1.6941    
  2.3159      3.0482      3.8794      4.8170      5.8902      7.1432      8.6216      10.348      12.283      14.286    
  16.093      17.372      11.693      11.398      10.600      9.5044      8.3280      7.2112      6.2002      5.2821    
  4.4285      3.6253      2.8805      2.2169      1.6572      1.2123     0.87925     0.64434     0.48469     0.37194    
 0.28120     0.20042     0.13084     0.78551E-01 0.46220E-01 0.31047E-01 0.26692E-01 0.25709E-01 0.22405E-01 0.15585E-01
 0.82194E-02 0.35924E-02 0.21816E-02 0.23274E-02 0.25308E-02 0.23274E-02 0.21816E-02 0.35924E-02 0.82194E-02 0.15585E-01
 0.22405E-01 0.25709E-01 0.26692E-01 0.31047E-01 0.46220E-01 0.78551E-01 0.13084     0.20042     0.28120     0.37194    
 0.48469     0.64434     0.87925      1.2123      1.6572      2.2169      2.8805      3.6253      4.4285      5.2821    
  6.2002      7.2112      8.3280      9.5044      10.600      11.398      7.9520      7.7657      7.2682      6.6016    
  5.9021      5.2358      4.5984      3.9596      3.3071      2.6626      2.0686      1.5641      1.1665     0.86951    
 0.65404     0.49816     0.38133     0.28645     0.20404     0.13444     0.83006E-01 0.51733E-01 0.36169E-01 0.29274E-01
 0.25784E-01 0.22642E-01 0.17982E-01 0.11646E-01 0.56264E-02 0.22707E-02 0.19681E-02 0.30818E-02 0.37073E-02 0.30818E-02
 0.19681E-02 0.22707E-02 0.56264E-02 0.11646E-01 0.17982E-01 0.22642E-01 0.25784E-01 0.29274E-01 0.36169E-01 0.51733E-01
 0.83006E-01 0.13444     0.20404     0.28645     0.38133     0.49816     0.65404     0.86951      1.1665      1.5641    
  2.0686      2.6626      3.3071      3.9596      4.5984      5.2358      5.9021      6.6016      7.2682      7.7657    
  5.4724      5.3510      5.0317      4.6146      4.1847      3.7652      3.3296      2.8515      2.3419      1.8464    
  1.4140      1.0712     0.81619     0.63102     0.49360     0.38504     0.29248     0.21051     0.14051     0.87133E-01
 0.53270E-01 0.36733E-01 0.30765E-01 0.27849E-01 0.23629E-01 0.17810E-01 0.11950E-01 0.70828E-02 0.34773E-02 0.15481E-02
 0.16662E-02 0.30319E-02 0.38197E-02 0.30319E-02 0.16662E-02 0.15481E-02 0.34773E-02 0.70828E-02 0.11950E-01 0.17810E-01
 0.23629E-01 0.27849E-01 0.30765E-01 0.36733E-01 0.53270E-01 0.87133E-01 0.14051     0.21051     0.29248     0.38504    
 0.49360     0.63102     0.81619      1.0712      1.4140      1.8464      2.3419      2.8515      3.3296      3.7652    
  4.1847      4.6146      5.0317      5.3510      3.6577      3.5822      3.3848      3.1276      2.8564      2.5739    
  2.2582      1.9025      1.5338      1.1968     0.92403     0.72097     0.57342     0.46188     0.37035     0.28892    
 0.21430     0.14881     0.96900E-01 0.61195E-01 0.40946E-01 0.32424E-01 0.29795E-01 0.26981E-01 0.20827E-01 0.12760E-01
 0.63445E-02 0.32003E-02 0.21365E-02 0.17053E-02 0.18152E-02 0.25251E-02 0.29757E-02 0.25251E-02 0.18152E-02 0.17053E-02
 0.21365E-02 0.32003E-02 0.63445E-02 0.12760E-01 0.20827E-01 0.26981E-01 0.29795E-01 0.32424E-01 0.40946E-01 0.61195E-01
 0.96900E-01 0.14881     0.21430     0.28892     0.37035     0.46188     0.57342     0.72097     0.92403      1.1968    
  1.5338      1.9025      2.2582      2.5739      2.8564      3.1276      3.3848      3.5822      2.3340      2.2923    
  2.1811      2.0293      1.8548      1.6565      1.4295      1.1845     0.94845     0.74918     0.59875     0.49062    
 0.40829     0.33659     0.26820     0.20364     0.14710     0.10209     0.69732E-01 0.49239E-01 0.38349E-01 0.33339E-01
 0.29786E-01 0.24483E-01 0.16960E-01 0.91398E-02 0.35035E-02 0.12804E-02 0.17387E-02 0.28765E-02 0.30601E-02 0.22908E-02
 0.17904E-02 0.22908E-02 0.30601E-02 0.28765E-02 0.17387E-02 0.12804E-02 0.35035E-02 0.91398E-02 0.16960E-01 0.24483E-01
 0.29786E-01 0.33339E-01 0.38349E-01 0.49239E-01 0.69732E-01 0.10209     0.14710     0.20364     0.26820     0.33659    
 0.40829     0.49062     0.59875     0.74918     0.94845      1.1845      1.4295      1.6565      1.8548      2.0293    
  2.1811      2.2923      1.4444      1.4209      1.3575      1.2678      1.1592      1.0318     0.88742     0.73761    
 0.60028     0.48966     0.40870     0.34866     0.29562     0.24016     0.18316     0.13256     0.94561E-01 0.69045E-01
 0.52578E-01 0.42587E-01 0.37021E-01 0.32582E-01 0.26398E-01 0.18751E-01 0.11939E-01 0.69664E-02 0.33706E-02 0.15051E-02
 0.22068E-02 0.41341E-02 0.43159E-02 0.22400E-02 0.87023E-03 0.22400E-02 0.43159E-02 0.41341E-02 0.22068E-02 0.15051E-02
 0.33706E-02 0.69664E-02 0.11939E-01 0.18751E-01 0.26398E-01 0.32582E-01 0.37021E-01 0.42587E-01 0.52578E-01 0.69045E-01
 0.94561E-01 0.13256     0.18316     0.24016     0.29562     0.34866     0.40870     0.48966     0.60028     0.73761    
 0.88742      1.0318      1.1592      1.2678      1.3575      1.4209     0.90632     0.89041     0.84909     0.79495    
 0.73508     0.66753     0.58893     0.50305     0.42101     0.35333     0.30190     0.25908     0.21480     0.16581    
 0.11833     0.81682E-01 0.59546E-01 0.48191E-01 0.41779E-01 0.36956E-01 0.32278E-01 0.26348E-01 0.18800E-01 0.11606E-01
 0.70723E-02 0.50268E-02 0.37146E-02 0.27607E-02 0.30693E-02 0.40866E-02 0.37490E-02 0.17538E-02 0.53497E-03 0.17538E-02
 0.37490E-02 0.40866E-02 0.30693E-02 0.27607E-02 0.37146E-02 0.50268E-02 0.70723E-02 0.11606E-01 0.18800E-01 0.26348E-01
 0.32278E-01 0.36956E-01 0.41779E-01 0.48191E-01 0.59546E-01 0.81682E-01 0.11833     0.16581     0.21480     0.25908    
 0.30190     0.35333     0.42101     0.50305     0.58893     0.66753     0.73508     0.79495     0.84909     0.89041    
 0.61489     0.60551     0.58171     0.55170     0.51878     0.47918     0.42877     0.37061     0.31407     0.26675    
 0.22809     0.19152     0.15203     0.11133     0.76100E-01 0.52300E-01 0.40776E-01 0.37207E-01 0.35408E-01 0.31188E-01
 0.24120E-01 0.16386E-01 0.10176E-01 0.61574E-02 0.39296E-02 0.30680E-02 0.32294E-02 0.36926E-02 0.35836E-02 0.26846E-02
 0.15787E-02 0.87398E-03 0.66707E-03 0.87398E-03 0.15787E-02 0.26846E-02 0.35836E-02 0.36926E-02 0.32294E-02 0.30680E-02
 0.39296E-02 0.61574E-02 0.10176E-01 0.16386E-01 0.24120E-01 0.31188E-01 0.35408E-01 0.37207E-01 0.40776E-01 0.52300E-01
 0.76100E-01 0.11133     0.15203     0.19152     0.22809     0.26675     0.31407     0.37061     0.42877     0.47918    
 0.51878     0.55170     0.58171     0.60551     0.45432     0.45166     0.44337     0.42764     0.40101     0.36149    
 0.31272     0.26347     0.22164     0.18861     0.16003     0.13138     0.10205     0.74739E-01 0.52874E-01 0.38871E-01
 0.32941E-01 0.31960E-01 0.30414E-01 0.24467E-01 0.15358E-01 0.76500E-02 0.40359E-02 0.31684E-02 0.26647E-02 0.22826E-02
 0.28751E-02 0.37597E-02 0.32622E-02 0.14395E-02 0.19547E-03 0.42019E-03 0.84097E-03 0.42019E-03 0.19547E-03 0.14395E-02
 0.32622E-02 0.37597E-02 0.28751E-02 0.22826E-02 0.26647E-02 0.31684E-02 0.40359E-02 0.76500E-02 0.15358E-01 0.24467E-01
 0.30414E-01 0.31960E-01 0.32941E-01 0.38871E-01 0.52874E-01 0.74739E-01 0.10205     0.13138     0.16003     0.18861    
 0.22164     0.26347     0.31272     0.36149     0.40101     0.42764     0.44337     0.45166     0.32309     0.32213    
 0.31776     0.30577     0.28171     0.24569     0.20445     0.16712     0.13827     0.11625     0.97524E-01 0.80551E-01
 0.65310E-01 0.51733E-01 0.40311E-01 0.32659E-01 0.29370E-01 0.27813E-01 0.23993E-01 0.16742E-01 0.87691E-02 0.33816E-02
 0.13805E-02 0.14586E-02 0.22614E-02 0.31125E-02 0.35228E-02 0.31524E-02 0.22278E-02 0.13648E-02 0.92140E-03 0.80337E-03
 0.79282E-03 0.80337E-03 0.92140E-03 0.13648E-02 0.22278E-02 0.31524E-02 0.35228E-02 0.31125E-02 0.22614E-02 0.14586E-02
 0.13805E-02 0.33816E-02 0.87691E-02 0.16742E-01 0.23993E-01 0.27813E-01 0.29370E-01 0.32659E-01 0.40311E-01 0.51733E-01
 0.65310E-01 0.80551E-01 0.97524E-01 0.11625     0.13827     0.16712     0.20445     0.24569     0.28171     0.30577    
 0.31776     0.32213     0.19041     0.18707     0.17850     0.16688     0.15243     0.13452     0.11440     0.94817E-01
 0.77631E-01 0.63496E-01 0.53132E-01 0.46675E-01 0.42127E-01 0.36885E-01 0.31061E-01 0.26993E-01 0.25000E-01 0.22171E-01
 0.16503E-01 0.98837E-02 0.52666E-02 0.28713E-02 0.13176E-02 0.75453E-03 0.20686E-02 0.39779E-02 0.39887E-02 0.21492E-02
 0.10357E-02 0.16717E-02 0.22013E-02 0.13882E-02 0.68550E-03 0.13882E-02 0.22013E-02 0.16717E-02 0.10357E-02 0.21492E-02
 0.39887E-02 0.39779E-02 0.20686E-02 0.75453E-03 0.13176E-02 0.28713E-02 0.52666E-02 0.98837E-02 0.16503E-01 0.22171E-01
 0.25000E-01 0.26993E-01 0.31061E-01 0.36885E-01 0.42127E-01 0.46675E-01 0.53132E-01 0.63496E-01 0.77631E-01 0.94817E-01
 0.11440     0.13452     0.15243     0.16688     0.17850     0.18707     0.94516E-01 0.91547E-01 0.84612E-01 0.77346E-01
 0.71339E-01 0.65636E-01 0.58980E-01 0.51284E-01 0.43433E-01 0.36844E-01 0.32825E-01 0.31144E-01 0.29626E-01 0.26469E-01
 0.22549E-01 0.19893E-01 0.18236E-01 0.15241E-01 0.10324E-01 0.59444E-02 0.40848E-02 0.36018E-02 0.26311E-02 0.16973E-02
 0.22194E-02 0.33197E-02 0.28468E-02 0.10142E-02 0.23883E-03 0.12472E-02 0.20401E-02 0.13893E-02 0.74659E-03 0.13893E-02
 0.20401E-02 0.12472E-02 0.23883E-03 0.10142E-02 0.28468E-02 0.33197E-02 0.22194E-02 0.16973E-02 0.26311E-02 0.36018E-02
 0.40848E-02 0.59444E-02 0.10324E-01 0.15241E-01 0.18236E-01 0.19893E-01 0.22549E-01 0.26469E-01 0.29626E-01 0.31144E-01
 0.32825E-01 0.36844E-01 0.43433E-01 0.51284E-01 0.58980E-01 0.65636E-01 0.71339E-01 0.77346E-01 0.84612E-01 0.91547E-01
 0.58171E-01 0.59356E-01 0.61271E-01 0.60419E-01 0.54587E-01 0.45066E-01 0.35812E-01 0.30241E-01 0.28733E-01 0.29058E-01
 0.28729E-01 0.26668E-01 0.23169E-01 0.19149E-01 0.15560E-01 0.12880E-01 0.10784E-01 0.86010E-02 0.62905E-02 0.45970E-02
 0.40422E-02 0.41546E-02 0.40551E-02 0.34595E-02 0.26655E-02 0.18465E-02 0.95606E-03 0.22112E-03 0.76545E-04 0.49026E-03
 0.88297E-03 0.90681E-03 0.82866E-03 0.90681E-03 0.88297E-03 0.49026E-03 0.76545E-04 0.22112E-03 0.95606E-03 0.18465E-02
 0.26655E-02 0.34595E-02 0.40551E-02 0.41546E-02 0.40422E-02 0.45970E-02 0.62905E-02 0.86010E-02 0.10784E-01 0.12880E-01
 0.15560E-01 0.19149E-01 0.23169E-01 0.26668E-01 0.28729E-01 0.29058E-01 0.28733E-01 0.30241E-01 0.35812E-01 0.45066E-01
 0.54587E-01 0.60419E-01 0.61271E-01 0.59356E-01 0.46007E-01 0.49047E-01 0.54858E-01 0.56689E-01 0.50696E-01 0.39299E-01
 0.28797E-01 0.24014E-01 0.24893E-01 0.27444E-01 0.27561E-01 0.24118E-01 0.18930E-01 0.14256E-01 0.10770E-01 0.78914E-02
 0.53692E-02 0.37608E-02 0.34296E-02 0.38505E-02 0.42425E-02 0.43761E-02 0.43331E-02 0.38925E-02 0.27693E-02 0.13047E-02
 0.30844E-03 0.13646E-03 0.37453E-03 0.51948E-03 0.53650E-03 0.58661E-03 0.63194E-03 0.58661E-03 0.53650E-03 0.51948E-03
 0.37453E-03 0.13646E-03 0.30844E-03 0.13047E-02 0.27693E-02 0.38925E-02 0.43331E-02 0.43761E-02 0.42425E-02 0.38505E-02
 0.34296E-02 0.37608E-02 0.53692E-02 0.78914E-02 0.10770E-01 0.14256E-01 0.18930E-01 0.24118E-01 0.27561E-01 0.27444E-01
 0.24893E-01 0.24014E-01 0.28797E-01 0.39299E-01 0.50696E-01 0.56689E-01 0.54858E-01 0.49047E-01 0.23994E-01 0.24536E-01
 0.25671E-01 0.26414E-01 0.26182E-01 0.25158E-01 0.24012E-01 0.23402E-01 0.23487E-01 0.23574E-01 0.22397E-01 0.19228E-01
 0.14766E-01 0.10576E-01 0.75354E-02 0.52421E-02 0.31361E-02 0.16439E-02 0.16157E-02 0.28626E-02 0.40085E-02 0.39881E-02
 0.31360E-02 0.24381E-02 0.21519E-02 0.17426E-02 0.99470E-03 0.47872E-03 0.67955E-03 0.11755E-02 0.11636E-02 0.59145E-03
 0.23560E-03 0.59145E-03 0.11636E-02 0.11755E-02 0.67955E-03 0.47872E-03 0.99470E-03 0.17426E-02 0.21519E-02 0.24381E-02
 0.31360E-02 0.39881E-02 0.40085E-02 0.28626E-02 0.16157E-02 0.16439E-02 0.31361E-02 0.52421E-02 0.75354E-02 0.10576E-01
 0.14766E-01 0.19228E-01 0.22397E-01 0.23574E-01 0.23487E-01 0.23402E-01 0.24012E-01 0.25158E-01 0.26182E-01 0.26414E-01
 0.25671E-01 0.24536E-01 0.64703E-02 0.54378E-02 0.36724E-02 0.38499E-02 0.73148E-02 0.12673E-01 0.17035E-01 0.18587E-01
 0.17828E-01 0.16357E-01 0.14894E-01 0.12924E-01 0.10080E-01 0.71159E-02 0.50765E-02 0.39883E-02 0.30649E-02 0.20832E-02
 0.17385E-02 0.23594E-02 0.30195E-02 0.26209E-02 0.14626E-02 0.86411E-03 0.12836E-02 0.17218E-02 0.13041E-02 0.59652E-03
 0.63641E-03 0.12410E-02 0.12867E-02 0.52057E-03 0.16473E-04 0.52057E-03 0.12867E-02 0.12410E-02 0.63641E-03 0.59652E-03
 0.13041E-02 0.17218E-02 0.12836E-02 0.86411E-03 0.14626E-02 0.26209E-02 0.30195E-02 0.23594E-02 0.17385E-02 0.20832E-02
 0.30649E-02 0.39883E-02 0.50765E-02 0.71159E-02 0.10080E-01 0.12924E-01 0.14894E-01 0.16357E-01 0.17828E-01 0.18587E-01
 0.17035E-01 0.12673E-01 0.73148E-02 0.38499E-02 0.36724E-02 0.54378E-02 0.11645E-01 0.12679E-01 0.14822E-01 0.16070E-01
 0.15155E-01 0.12563E-01 0.99396E-02 0.86323E-02 0.87085E-02 0.91641E-02 0.88984E-02 0.75578E-02 0.56685E-02 0.41042E-02
 0.33873E-02 0.33765E-02 0.35393E-02 0.34617E-02 0.30707E-02 0.24595E-02 0.17046E-02 0.94938E-03 0.48866E-03 0.52377E-03
 0.83938E-03 0.95321E-03 0.67585E-03 0.33595E-03 0.30901E-03 0.49333E-03 0.49171E-03 0.22547E-03 0.54754E-04 0.22547E-03
 0.49171E-03 0.49333E-03 0.30901E-03 0.33595E-03 0.67585E-03 0.95321E-03 0.83938E-03 0.52377E-03 0.48866E-03 0.94938E-03
 0.17046E-02 0.24595E-02 0.30707E-02 0.34617E-02 0.35393E-02 0.33765E-02 0.33873E-02 0.41042E-02 0.56685E-02 0.75578E-02
 0.88984E-02 0.91641E-02 0.87085E-02 0.86323E-02 0.99396E-02 0.12563E-01 0.15155E-01 0.16070E-01 0.14822E-01 0.12679E-01
 0.19153E-01 0.21419E-01 0.25717E-01 0.26919E-01 0.22108E-01 0.13302E-01 0.55392E-02 0.23849E-02 0.33109E-02 0.51350E-02
 0.54185E-02 0.41818E-02 0.28455E-02 0.23757E-02 0.27024E-02 0.33209E-02 0.38121E-02 0.38476E-02 0.32090E-02 0.20445E-02
 0.90493E-03 0.32288E-03 0.37545E-03 0.70627E-03 0.89883E-03 0.78002E-03 0.45600E-03 0.15842E-03 0.40954E-04 0.67589E-04
 0.95394E-04 0.60764E-04 0.30477E-04 0.60764E-04 0.95394E-04 0.67589E-04 0.40954E-04 0.15842E-03 0.45600E-03 0.78002E-03
 0.89883E-03 0.70627E-03 0.37545E-03 0.32288E-03 0.90493E-03 0.20445E-02 0.32090E-02 0.38476E-02 0.38121E-02 0.33209E-02
 0.27024E-02 0.23757E-02 0.28455E-02 0.41818E-02 0.54185E-02 0.51350E-02 0.33109E-02 0.23849E-02 0.55392E-02 0.13302E-01
 0.22108E-01 0.26919E-01 0.25717E-01 0.21419E-01 0.88537E-02 0.85692E-02 0.78715E-02 0.69769E-02 0.59199E-02 0.48293E-02
 0.41450E-02 0.41507E-02 0.44513E-02 0.43228E-02 0.35340E-02 0.25287E-02 0.19002E-02 0.19804E-02 0.27474E-02 0.36919E-02
 0.39213E-02 0.29769E-02 0.15466E-02 0.78187E-03 0.86429E-03 0.93060E-03 0.55920E-03 0.44493E-03 0.10955E-02 0.17186E-02
 0.13167E-02 0.31886E-03 0.10993E-06 0.51868E-03 0.75692E-03 0.21443E-03 -.20415E-03 0.21443E-03 0.75692E-03 0.51868E-03
 0.10993E-06 0.31886E-03 0.13167E-02 0.17186E-02 0.10955E-02 0.44493E-03 0.55920E-03 0.93060E-03 0.86429E-03 0.78187E-03
 0.15466E-02 0.29769E-02 0.39213E-02 0.36919E-02 0.27474E-02 0.19804E-02 0.19002E-02 0.25287E-02 0.35340E-02 0.43228E-02
 0.44513E-02 0.41507E-02 0.41450E-02 0.48293E-02 0.59199E-02 0.69769E-02 0.78715E-02 0.85692E-02 -.83262E-03 -.31911E-02
 -.78684E-02 -.10130E-01 -.74840E-02 -.15427E-02 0.40404E-02 0.67022E-02 0.63282E-02 0.44973E-02 0.28645E-02 0.20512E-02
 0.18215E-02 0.20361E-02 0.28742E-02 0.39338E-02 0.39609E-02 0.23541E-02 0.43308E-03 0.31641E-04 0.99409E-03 0.14334E-02
 0.64451E-03 0.16605E-03 0.11762E-02 0.23802E-02 0.19508E-02 0.46989E-03 0.31815E-04 0.91870E-03 0.12941E-02 0.35516E-03
 -.35869E-03 0.35516E-03 0.12941E-02 0.91870E-03 0.31815E-04 0.46989E-03 0.19508E-02 0.23802E-02 0.11762E-02 0.16605E-03
 0.64451E-03 0.14334E-02 0.99409E-03 0.31641E-04 0.43308E-03 0.23541E-02 0.39609E-02 0.39338E-02 0.28742E-02 0.20361E-02
 0.18215E-02 0.20512E-02 0.28645E-02 0.44973E-02 0.63282E-02 0.67022E-02 0.40404E-02 -.15427E-02 -.74840E-02 -.10130E-01
 -.78684E-02 -.31911E-02 0.88537E-02 0.85692E-02 0.78715E-02 0.69769E-02 0.59199E-02 0.48293E-02 0.41450E-02 0.41507E-02
 0.44513E-02 0.43228E-02 0.35340E-02 0.25287E-02 0.19002E-02 0.19804E-02 0.27474E-02 0.36919E-02 0.39213E-02 0.29769E-02
 0.15466E-02 0.78187E-03 0.86429E-03 0.93060E-03 0.55920E-03 0.44493E-03 0.10955E-02 0.17186E-02 0.13167E-02 0.31886E-03
 0.10993E-06 0.51868E-03 0.75692E-03 0.21443E-03 -.20415E-03 0.21443E-03 0.75692E-03 0.51868E-03 0.10993E-06 0.31886E-03
 0.13167E-02 0.17186E-02 0.10955E-02 0.44493E-03 0.55920E-03 0.93060E-03 0.86429E-03 0.78187E-03 0.15466E-02 0.29769E-02
 0.39213E-02 0.36919E-02 0.27474E-02 0.19804E-02 0.19002E-02 0.25287E-02 0.35340E-02 0.43228E-02 0.44513E-02 0.41507E-02
 0.41450E-02 0.48293E-02 0.59199E-02 0.69769E-02 0.78715E-02 0.85692E-02 0.19153E-01 0.21419E-01 0.25717E-01 0.26919E-01
 0.22108E-01 0.13302E-01 0.55392E-02 0.23849E-02 0.33109E-02 0.51350E-02 0.54185E-02 0.41818E-02 0.28455E-02 0.23757E-02
 0.27024E-02 0.33209E-02 0.38121E-02 0.38476E-02 0.32090E-02 0.20445E-02 0.90493E-03 0.32288E-03 0.37545E-03 0.70627E-03
 0.89883E-03 0.78002E-03 0.45600E-03 0.15842E-03 0.40954E-04 0.67589E-04 0.95394E-04 0.60764E-04 0.30477E-04 0.60764E-04
 0.95394E-04 0.67589E-04 0.40954E-04 0.15842E-03 0.45600E-03 0.78002E-03 0.89883E-03 0.70627E-03 0.37545E-03 0.32288E-03
 0.90493E-03 0.20445E-02 0.32090E-02 0.38476E-02 0.38121E-02 0.33209E-02 0.27024E-02 0.23757E-02 0.28455E-02 0.41818E-02
 0.54185E-02 0.51350E-02 0.33109E-02 0.23849E-02 0.55392E-02 0.13302E-01 0.22108E-01 0.26919E-01 0.25717E-01 0.21419E-01
 0.11645E-01 0.12679E-01 0.14822E-01 0.16070E-01 0.15155E-01 0.12563E-01 0.99396E-02 0.86323E-02 0.87085E-02 0.91641E-02
 0.88984E-02 0.75578E-02 0.56685E-02 0.41042E-02 0.33873E-02 0.33765E-02 0.35393E-02 0.34617E-02 0.30707E-02 0.24595E-02
 0.17046E-02 0.94938E-03 0.48866E-03 0.52377E-03 0.83938E-03 0.95321E-03 0.67585E-03 0.33595E-03 0.30901E-03 0.49333E-03
 0.49171E-03 0.22547E-03 0.54754E-04 0.22547E-03 0.49171E-03 0.49333E-03 0.30901E-03 0.33595E-03 0.67585E-03 0.95321E-03
 0.83938E-03 0.52377E-03 0.48866E-03 0.94938E-03 0.17046E-02 0.24595E-02 0.30707E-02 0.34617E-02 0.35393E-02 0.33765E-02
 0.33873E-02 0.41042E-02 0.56685E-02 0.75578E-02 0.88984E-02 0.91641E-02 0.87085E-02 0.86323E-02 0.99396E-02 0.12563E-01
 0.15155E-01 0.16070E-01 0.14822E-01 0.12679E-01 0.64703E-02 0.54378E-02 0.36724E-02 0.38499E-02 0.73148E-02 0.12673E-01
 0.17035E-01 0.18587E-01 0.17828E-01 0.16357E-01 0.14894E-01 0.12924E-01 0.10080E-01 0.71159E-02 0.50765E-02 0.39883E-02
 0.30649E-02 0.20832E-02 0.17385E-02 0.23594E-02 0.30195E-02 0.26209E-02 0.14626E-02 0.86411E-03 0.12836E-02 0.17218E-02
 0.13041E-02 0.59652E-03 0.63641E-03 0.12410E-02 0.12867E-02 0.52057E-03 0.16473E-04 0.52057E-03 0.12867E-02 0.12410E-02
 0.63641E-03 0.59652E-03 0.13041E-02 0.17218E-02 0.12836E-02 0.86411E-03 0.14626E-02 0.26209E-02 0.30195E-02 0.23594E-02
 0.17385E-02 0.20832E-02 0.30649E-02 0.39883E-02 0.50765E-02 0.71159E-02 0.10080E-01 0.12924E-01 0.14894E-01 0.16357E-01
 0.17828E-01 0.18587E-01 0.17035E-01 0.12673E-01 0.73148E-02 0.38499E-02 0.36724E-02 0.54378E-02 0.23994E-01 0.24536E-01
 0.25671E-01 0.26414E-01 0.26182E-01 0.25158E-01 0.24012E-01 0.23402E-01 0.23487E-01 0.23574E-01 0.22397E-01 0.19228E-01
 0.14766E-01 0.10576E-01 0.75354E-02 0.52421E-02 0.31361E-02 0.16439E-02 0.16157E-02 0.28626E-02 0.40085E-02 0.39881E-02
 0.31360E-02 0.24381E-02 0.21519E-02 0.17426E-02 0.99470E-03 0.47872E-03 0.67955E-03 0.11755E-02 0.11636E-02 0.59145E-03
 0.23560E-03 0.59145E-03 0.11636E-02 0.11755E-02 0.67955E-03 0.47872E-03 0.99470E-03 0.17426E-02 0.21519E-02 0.24381E-02
 0.31360E-02 0.39881E-02 0.40085E-02 0.28626E-02 0.16157E-02 0.16439E-02 0.31361E-02 0.52421E-02 0.75354E-02 0.10576E-01
 0.14766E-01 0.19228E-01 0.22397E-01 0.23574E-01 0.23487E-01 0.23402E-01 0.24012E-01 0.25158E-01 0.26182E-01 0.26414E-01