   8   8   0   0
  0.6400000E+02  0.8000000E-09  0.8000000E-09  0.8000000E-09  0.5000000E-15
  1.000000000000000E-004
  CAR 
 unknown system                          
      3.53175690    -20.14094875  301     -6.64735241      1.00000000
    -20.141  0.0000E+00  0.0000E+00
    -20.062  0.0000E+00  0.0000E+00
    -19.983  0.0000E+00  0.0000E+00
    -19.904  0.0000E+00  0.0000E+00
    -19.825  0.0000E+00  0.0000E+00
    -19.746  0.0000E+00  0.0000E+00
    -19.667  0.0000E+00  0.0000E+00
    -19.589  0.0000E+00  0.0000E+00
    -19.510  0.0000E+00  0.0000E+00
    -19.431  0.0000E+00  0.0000E+00
    -19.352  0.0000E+00  0.0000E+00
    -19.273  0.1548E-14  0.1221E-15
    -19.194  0.1199E-12  0.9581E-14
    -19.115  0.7023E-11  0.5638E-12
    -19.036  0.3025E-09  0.2443E-10
    -18.957  0.9584E-08  0.7807E-09
    -18.878  0.2236E-06  0.1842E-07
    -18.799  0.3840E-05  0.3214E-06
    -18.721  0.4859E-04  0.4156E-05
    -18.642  0.4531E-03  0.3991E-04
    -18.563  0.3115E-02  0.2857E-03
    -18.484  0.1579E-01  0.1532E-02
    -18.405  0.5907E-01  0.6193E-02
    -18.326  0.1631E+00  0.1906E-01
    -18.247  0.3322E+00  0.4528E-01
    -18.168  0.4997E+00  0.8471E-01
    -18.089  0.5549E+00  0.1285E+00
    -18.010  0.4550E+00  0.1644E+00
    -17.931  0.2755E+00  0.1861E+00
    -17.853  0.1231E+00  0.1959E+00
    -17.774  0.4061E-01  0.1991E+00
    -17.695  0.9884E-02  0.1998E+00
    -17.616  0.1775E-02  0.2000E+00
    -17.537  0.2350E-03  0.2000E+00
    -17.458  0.2293E-04  0.2000E+00
    -17.379  0.1649E-05  0.2000E+00
    -17.300  0.8736E-07  0.2000E+00
    -17.221  0.3407E-08  0.2000E+00
    -17.142  0.9782E-10  0.2000E+00
    -17.063  0.2066E-11  0.2000E+00
    -16.985  0.3208E-13  0.2000E+00
    -16.906  0.5628E-15  0.2000E+00
    -16.827  0.0000E+00  0.2000E+00
    -16.748  0.0000E+00  0.2000E+00
    -16.669  0.0000E+00  0.2000E+00
    -16.590  0.0000E+00  0.2000E+00
    -16.511  0.0000E+00  0.2000E+00
    -16.432  0.0000E+00  0.2000E+00
    -16.353  0.0000E+00  0.2000E+00
    -16.274  0.0000E+00  0.2000E+00
    -16.195  0.0000E+00  0.2000E+00
    -16.117  0.0000E+00  0.2000E+00
    -16.038  0.0000E+00  0.2000E+00
    -15.959  0.0000E+00  0.2000E+00
    -15.880  0.0000E+00  0.2000E+00
    -15.801  0.0000E+00  0.2000E+00
    -15.722  0.4221E-14  0.2000E+00
    -15.643  0.3064E-12  0.2000E+00
    -15.564  0.1675E-10  0.2000E+00
    -15.485  0.6736E-09  0.2000E+00
    -15.406  0.1993E-07  0.2000E+00
    -15.327  0.4340E-06  0.2000E+00
    -15.249  0.6962E-05  0.2000E+00
    -15.170  0.8226E-04  0.2000E+00
    -15.091  0.7165E-03  0.2001E+00
    -15.012  0.4601E-02  0.2004E+00
    -14.933  0.2179E-01  0.2021E+00
    -14.854  0.7614E-01  0.2082E+00
    -14.775  0.1963E+00  0.2236E+00
    -14.696  0.3738E+00  0.2531E+00
    -14.617  0.5252E+00  0.2946E+00
    -14.538  0.5450E+00  0.3376E+00
    -14.459  0.4175E+00  0.3705E+00
    -14.381  0.2362E+00  0.3892E+00
    -14.302  0.9860E-01  0.3970E+00
    -14.223  0.3038E-01  0.3994E+00
    -14.144  0.6908E-02  0.3999E+00
    -14.065  0.1159E-02  0.4000E+00
    -13.986  0.1433E-03  0.4000E+00
    -13.907  0.1306E-04  0.4000E+00
    -13.828  0.8771E-06  0.4000E+00
    -13.749  0.4339E-07  0.4000E+00
    -13.670  0.1580E-08  0.4000E+00
    -13.592  0.4235E-10  0.4000E+00
    -13.513  0.8346E-12  0.4000E+00
    -13.434  0.1238E-13  0.4000E+00
    -13.355  0.0000E+00  0.4000E+00
    -13.276  0.0000E+00  0.4000E+00
    -13.197  0.0000E+00  0.4000E+00
    -13.118  0.0000E+00  0.4000E+00
    -13.039  0.0000E+00  0.4000E+00
    -12.960  0.0000E+00  0.4000E+00
    -12.881  0.0000E+00  0.4000E+00
    -12.802  0.0000E+00  0.4000E+00
    -12.724  0.0000E+00  0.4000E+00
    -12.645  0.0000E+00  0.4000E+00
    -12.566  0.0000E+00  0.4000E+00
    -12.487  0.0000E+00  0.4000E+00
    -12.408  0.0000E+00  0.4000E+00
    -12.329  0.0000E+00  0.4000E+00
    -12.250  0.0000E+00  0.4000E+00
    -12.171  0.0000E+00  0.4000E+00
    -12.092  0.0000E+00  0.4000E+00
    -12.013  0.0000E+00  0.4000E+00
    -11.934  0.0000E+00  0.4000E+00
    -11.856  0.0000E+00  0.4000E+00
    -11.777  0.0000E+00  0.4000E+00
    -11.698  0.0000E+00  0.4000E+00
    -11.619  0.0000E+00  0.4000E+00
    -11.540  0.0000E+00  0.4000E+00
    -11.461  0.0000E+00  0.4000E+00
    -11.382  0.0000E+00  0.4000E+00
    -11.303  0.0000E+00  0.4000E+00
    -11.224  0.0000E+00  0.4000E+00
    -11.145  0.9849E-15  0.4000E+00
    -11.066  0.7837E-13  0.4000E+00
    -10.988  0.4976E-11  0.4000E+00
    -10.909  0.2322E-09  0.4000E+00
    -10.830  0.7974E-08  0.4000E+00
    -10.751  0.2015E-06  0.4000E+00
    -10.672  0.3751E-05  0.4000E+00
    -10.593  0.5141E-04  0.4000E+00
    -10.514  0.5194E-03  0.4000E+00
    -10.435  0.3867E-02  0.4004E+00
    -10.356  0.2124E-01  0.4020E+00
    -10.277  0.8604E-01  0.4088E+00
    -10.198  0.2572E+00  0.4291E+00
    -10.120  0.5675E+00  0.4739E+00
    -10.041  0.9245E+00  0.5468E+00
     -9.962  0.1112E+01  0.6346E+00
     -9.883  0.9874E+00  0.7125E+00
     -9.804  0.6474E+00  0.7636E+00
     -9.725  0.3134E+00  0.7883E+00
     -9.646  0.1120E+00  0.7971E+00
     -9.567  0.2952E-01  0.7995E+00
     -9.488  0.5743E-02  0.7999E+00
     -9.409  0.8239E-03  0.8000E+00
     -9.330  0.8715E-04  0.8000E+00
     -9.252  0.6793E-05  0.8000E+00
     -9.173  0.3924E-06  0.8000E+00
     -9.094  0.7707E-07  0.8000E+00
     -9.015  0.1186E-05  0.8000E+00
     -8.936  0.1709E-04  0.8000E+00
     -8.857  0.1815E-03  0.8000E+00
     -8.778  0.1421E-02  0.8001E+00
     -8.699  0.8202E-02  0.8008E+00
     -8.620  0.3493E-01  0.8035E+00
     -8.541  0.1098E+00  0.8122E+00
     -8.462  0.2545E+00  0.8323E+00
     -8.384  0.4357E+00  0.8667E+00
     -8.305  0.5507E+00  0.9101E+00
     -8.226  0.5140E+00  0.9507E+00
     -8.147  0.3547E+00  0.9787E+00
     -8.068  0.1846E+00  0.9932E+00
     -7.989  0.9136E-01  0.1000E+01
     -7.910  0.1128E+00  0.1009E+01
     -7.831  0.2788E+00  0.1031E+01
     -7.752  0.5943E+00  0.1078E+01
     -7.673  0.9463E+00  0.1153E+01
     -7.594  0.1114E+01  0.1241E+01
     -7.516  0.9676E+00  0.1317E+01
     -7.437  0.6209E+00  0.1366E+01
     -7.358  0.2941E+00  0.1389E+01
     -7.279  0.1028E+00  0.1397E+01
     -7.200  0.2654E-01  0.1400E+01
     -7.121  0.5052E-02  0.1400E+01
     -7.042  0.7093E-03  0.1400E+01
     -6.963  0.7343E-04  0.1400E+01
     -6.884  0.5602E-05  0.1400E+01
     -6.805  0.3148E-06  0.1400E+01
     -6.726  0.1303E-07  0.1400E+01
     -6.648  0.3970E-09  0.1400E+01
     -6.569  0.8900E-11  0.1400E+01
     -6.490  0.1466E-12  0.1400E+01
     -6.411  0.1970E-14  0.1400E+01
     -6.332  0.0000E+00  0.1400E+01
     -6.253  0.0000E+00  0.1400E+01
     -6.174  0.0000E+00  0.1400E+01
     -6.095  0.0000E+00  0.1400E+01
     -6.016  0.0000E+00  0.1400E+01
     -5.937  0.0000E+00  0.1400E+01
     -5.858  0.0000E+00  0.1400E+01
     -5.780  0.0000E+00  0.1400E+01
     -5.701  0.0000E+00  0.1400E+01
     -5.622  0.0000E+00  0.1400E+01
     -5.543  0.0000E+00  0.1400E+01
     -5.464  0.0000E+00  0.1400E+01
     -5.385  0.0000E+00  0.1400E+01
     -5.306  0.0000E+00  0.1400E+01
     -5.227  0.0000E+00  0.1400E+01
     -5.148  0.0000E+00  0.1400E+01
     -5.069  0.0000E+00  0.1400E+01
     -4.990  0.0000E+00  0.1400E+01
     -4.912  0.0000E+00  0.1400E+01
     -4.833  0.0000E+00  0.1400E+01
     -4.754  0.0000E+00  0.1400E+01
     -4.675  0.0000E+00  0.1400E+01
     -4.596  0.0000E+00  0.1400E+01
     -4.517  0.0000E+00  0.1400E+01
     -4.438  0.0000E+00  0.1400E+01
     -4.359  0.0000E+00  0.1400E+01
     -4.280  0.0000E+00  0.1400E+01
     -4.201  0.0000E+00  0.1400E+01
     -4.122  0.0000E+00  0.1400E+01
     -4.044  0.0000E+00  0.1400E+01
     -3.965  0.0000E+00  0.1400E+01
     -3.886  0.0000E+00  0.1400E+01
     -3.807  0.0000E+00  0.1400E+01
     -3.728  0.0000E+00  0.1400E+01
     -3.649  0.0000E+00  0.1400E+01
     -3.570  0.0000E+00  0.1400E+01
     -3.491  0.0000E+00  0.1400E+01
     -3.412  0.0000E+00  0.1400E+01
     -3.333  0.0000E+00  0.1400E+01
     -3.254  0.0000E+00  0.1400E+01
     -3.176  0.0000E+00  0.1400E+01
     -3.097  0.0000E+00  0.1400E+01
     -3.018  0.0000E+00  0.1400E+01
     -2.939  0.0000E+00  0.1400E+01
     -2.860  0.0000E+00  0.1400E+01
     -2.781  0.0000E+00  0.1400E+01
     -2.702  0.0000E+00  0.1400E+01
     -2.623  0.0000E+00  0.1400E+01
     -2.544  0.0000E+00  0.1400E+01
     -2.465  0.0000E+00  0.1400E+01
     -2.386  0.0000E+00  0.1400E+01
     -2.308  0.0000E+00  0.1400E+01
     -2.229  0.0000E+00  0.1400E+01
     -2.150  0.0000E+00  0.1400E+01
     -2.071  0.0000E+00  0.1400E+01
     -1.992  0.0000E+00  0.1400E+01
     -1.913  0.0000E+00  0.1400E+01
     -1.834  0.0000E+00  0.1400E+01
     -1.755  0.4221E-15  0.1400E+01
     -1.676  0.3081E-13  0.1400E+01
     -1.597  0.1997E-11  0.1400E+01
     -1.518  0.9478E-10  0.1400E+01
     -1.440  0.3310E-08  0.1400E+01
     -1.361  0.8509E-07  0.1400E+01
     -1.282  0.1610E-05  0.1400E+01
     -1.203  0.2245E-04  0.1400E+01
     -1.124  0.2306E-03  0.1400E+01
     -1.045  0.1747E-02  0.1400E+01
     -0.966  0.9753E-02  0.1401E+01
     -0.887  0.4017E-01  0.1404E+01
     -0.808  0.1221E+00  0.1414E+01
     -0.729  0.2739E+00  0.1435E+01
     -0.650  0.4537E+00  0.1471E+01
     -0.572  0.5547E+00  0.1515E+01
     -0.493  0.5008E+00  0.1554E+01
     -0.414  0.3338E+00  0.1581E+01
     -0.335  0.1643E+00  0.1594E+01
     -0.256  0.5966E-01  0.1598E+01
     -0.177  0.1599E-01  0.1600E+01
     -0.098  0.3162E-02  0.1600E+01
     -0.019  0.4612E-03  0.1600E+01
      0.060  0.4959E-04  0.1600E+01
      0.139  0.3929E-05  0.1600E+01
      0.218  0.2293E-06  0.1600E+01
      0.296  0.9858E-08  0.1600E+01
      0.375  0.3402E-09  0.1600E+01
      0.454  0.1127E-08  0.1600E+01
      0.533  0.3271E-07  0.1600E+01
      0.612  0.7077E-06  0.1600E+01
      0.691  0.1136E-04  0.1600E+01
      0.770  0.1355E-03  0.1600E+01
      0.849  0.1205E-02  0.1600E+01
      0.928  0.7996E-02  0.1601E+01
      1.007  0.3977E-01  0.1604E+01
      1.086  0.1487E+00  0.1616E+01
      1.164  0.4200E+00  0.1649E+01
      1.243  0.9013E+00  0.1720E+01
      1.322  0.1483E+01  0.1837E+01
      1.401  0.1892E+01  0.1986E+01
      1.480  0.1901E+01  0.2136E+01
      1.559  0.1528E+01  0.2257E+01
      1.638  0.9906E+00  0.2335E+01
      1.717  0.5178E+00  0.2376E+01
      1.796  0.2155E+00  0.2393E+01
      1.875  0.7014E-01  0.2398E+01
      1.954  0.1753E-01  0.2400E+01
      2.032  0.3318E-02  0.2400E+01
      2.111  0.4707E-03  0.2400E+01
      2.190  0.4972E-04  0.2400E+01
      2.269  0.3894E-05  0.2400E+01
      2.348  0.2255E-06  0.2400E+01
      2.427  0.9633E-08  0.2400E+01
      2.506  0.3034E-09  0.2400E+01
      2.585  0.7037E-11  0.2400E+01
      2.664  0.1199E-12  0.2400E+01
      2.743  0.1688E-14  0.2400E+01
      2.822  0.0000E+00  0.2400E+01
      2.900  0.0000E+00  0.2400E+01
      2.979  0.0000E+00  0.2400E+01
      3.058  0.0000E+00  0.2400E+01
      3.137  0.0000E+00  0.2400E+01
      3.216  0.0000E+00  0.2400E+01
      3.295  0.0000E+00  0.2400E+01
      3.374  0.0000E+00  0.2400E+01
      3.453  0.0000E+00  0.2400E+01
      3.532  0.0000E+00  0.2400E+01
