    8    8   10    1
  0.6400000E+02  0.8000000E-09  0.8000000E-09  0.8000000E-09  0.5000000E-15
  1.000000000000000E-004
  CAR 
 unknown system                          
   14    1   12
 
  0.0000000E+00  0.0000000E+00  0.0000000E+00  0.1000000E+01
   1      -18.140949
   2      -14.607715
   3       -9.993924
   4       -9.991235
   5       -8.322576
   6       -7.633138
   7       -7.628781
   8       -0.598114
   9        1.322621
  10        1.377648
  11        1.409761
  12        1.531757
