       N       E                     dE             d eps       ncg     rms          rms(c)
DAV:   1     0.166804286716E+02    0.16680E+02   -0.32896E+03    32   0.408E+02
DAV:   2    -0.377634946565E+02   -0.54444E+02   -0.53948E+02    28   0.134E+02
DAV:   3    -0.446710346452E+02   -0.69075E+01   -0.68890E+01    32   0.455E+01
DAV:   4    -0.449212581017E+02   -0.25022E+00   -0.25013E+00    32   0.979E+00
DAV:   5    -0.449279012233E+02   -0.66431E-02   -0.66421E-02    32   0.154E+00    0.994E+00
DAV:   6    -0.411571007157E+02    0.37708E+01   -0.66446E+00    28   0.143E+01    0.474E+00
DAV:   7    -0.402751264277E+02    0.88197E+00   -0.24382E+00    28   0.797E+00    0.211E+00
DAV:   8    -0.400916824884E+02    0.18344E+00   -0.27221E-01    32   0.343E+00    0.428E-01
DAV:   9    -0.400818379647E+02    0.98445E-02   -0.30475E-02    28   0.102E+00    0.249E-01
DAV:  10    -0.400872793624E+02   -0.54414E-02   -0.53076E-02    28   0.119E+00    0.261E-01
DAV:  11    -0.400859087933E+02    0.13706E-02   -0.87843E-03    28   0.539E-01    0.726E-02
DAV:  12    -0.400925739736E+02   -0.66652E-02   -0.14190E-03    24   0.247E-01    0.324E-02
DAV:  13    -0.400948202151E+02   -0.22462E-02   -0.48940E-04    28   0.118E-01    0.231E-02
DAV:  14    -0.400960786631E+02   -0.12584E-02   -0.17549E-04    28   0.678E-02    0.118E-02
DAV:  15    -0.400962401974E+02   -0.16153E-03   -0.70608E-05    28   0.498E-02    0.111E-02
DAV:  16    -0.400963249205E+02   -0.84723E-04   -0.27965E-05    24   0.303E-02
   1 F= -.40096325E+02 E0= -.40096325E+02  d E =-.400963E+02
       N       E                     dE             d eps       ncg     rms          rms(c)
DAV:   1    -0.401335064683E+02   -0.37266E-01   -0.13870E+00    24   0.899E+00    0.586E-01
DAV:   2    -0.401231345191E+02    0.10372E-01   -0.25616E-02    28   0.117E+00    0.262E-01
DAV:   3    -0.401220567525E+02    0.10778E-02   -0.21679E-02    28   0.768E-01    0.102E-01
DAV:   4    -0.401218709371E+02    0.18582E-03   -0.49733E-04    24   0.137E-01    0.738E-02
DAV:   5    -0.401218961158E+02   -0.25179E-04   -0.24402E-04    24   0.102E-01
   2 F= -.40121896E+02 E0= -.40121896E+02  d E =-.255712E-01
       N       E                     dE             d eps       ncg     rms          rms(c)
DAV:   1    -0.401227236675E+02   -0.85273E-03   -0.26843E-02    28   0.133E+00    0.805E-02
DAV:   2    -0.401225787087E+02    0.14496E-03   -0.34390E-04    28   0.135E-01    0.387E-02
DAV:   3    -0.401225830223E+02   -0.43135E-05   -0.42980E-04    24   0.105E-01
   3 F= -.40122583E+02 E0= -.40122583E+02  d E =-.262581E-01
       N       E                     dE             d eps       ncg     rms          rms(c)
DAV:   1    -0.401217260360E+02    0.85267E-03   -0.59790E-01    24   0.583E+00    0.163E-01
DAV:   2    -0.401215422172E+02    0.18382E-03   -0.42675E-03    24   0.462E-01    0.945E-02
DAV:   3    -0.401214708595E+02    0.71358E-04   -0.12295E-03    24   0.246E-01    0.191E-02
DAV:   4    -0.401214670626E+02    0.37969E-05   -0.19690E-04    32   0.959E-02
   4 F= -.40121467E+02 E0= -.40121467E+02  d E =0.111596E-02
       N       E                     dE             d eps       ncg     rms          rms(c)
DAV:   1    -0.401237469618E+02   -0.22761E-02   -0.20139E-01    24   0.337E+00    0.938E-02
DAV:   2    -0.401236736104E+02    0.73351E-04   -0.11867E-03    28   0.257E-01    0.546E-02
DAV:   3    -0.401236474963E+02    0.26114E-04   -0.42329E-04    32   0.145E-01
   5 F= -.40123647E+02 E0= -.40123647E+02  d E =-.106447E-02
