<?xml version="1.0" encoding="ISO-8859-1"?>
<modeling>
 <generator>
  <i name="program" type="string">vasp </i>
  <i name="version" type="string">5.2.12  </i>
  <i name="subversion" type="string">11Nov11 complex                                                      parallel </i>
  <i name="platform" type="string">LinuxIFC </i>
  <i name="date" type="string">2012 11 03 </i>
  <i name="time" type="string">00:25:02 </i>
 </generator>
 <incar>
  <i type="string" name="PREC">normal</i>
  <i type="int" name="IBRION">     2</i>
  <i type="int" name="NSW">    10</i>
  <i name="ENCUT">    250.00000000</i>
  <i type="int" name="ISMEAR">     0</i>
 </incar>
 <kpoints>
  <generation param="Monkhorst-Pack">
   <v type="int" name="divisions">       1        1        1 </v>
   <v name="usershift">      0.00000000       0.00000000       0.00000000 </v>
   <v name="genvec1">      1.00000000       0.00000000       0.00000000 </v>
   <v name="genvec2">      0.00000000       1.00000000       0.00000000 </v>
   <v name="genvec3">      0.00000000       0.00000000       1.00000000 </v>
   <v name="shift">      0.00000000       0.00000000       0.00000000 </v>
  </generation>
  <varray name="kpointlist" >
   <v>       0.00000000       0.00000000       0.00000000 </v>
  </varray>
  <varray name="weights" >
   <v>       1.00000000 </v>
  </varray>
 </kpoints>
 <parameters>
  <separator name="general" >
   <i type="string" name="SYSTEM">unknown system</i>
   <i type="logical" name="LCOMPAT"> F  </i>
  </separator>
  <separator name="electronic" >
   <i type="string" name="PREC">normal</i>
   <i name="ENMAX">    250.00000000</i>
   <i name="ENAUG">    644.87300000</i>
   <i name="EDIFF">      0.00010000</i>
   <i type="int" name="IALGO">    38</i>
   <i type="int" name="IWAVPR">    11</i>
   <i type="int" name="NBANDS">    12</i>
   <i name="NELECT">     14.00000000</i>
   <i type="int" name="TURBO">     0</i>
   <i type="int" name="IRESTART">     0</i>
   <i type="int" name="NREBOOT">     0</i>
   <i type="int" name="NMIN">     0</i>
   <i name="EREF">      0.00000000</i>
   <separator name="electronic smearing" >
    <i type="int" name="ISMEAR">     0</i>
    <i name="SIGMA">      0.20000000</i>
    <i name="KSPACING">      0.50000000</i>
    <i type="logical" name="KGAMMA"> T  </i>
   </separator>
   <separator name="electronic projectors" >
    <i type="logical" name="LREAL"> F  </i>
    <v name="ROPT">      0.00000000      0.00000000</v>
    <i type="int" name="LMAXPAW">  -100</i>
    <i type="int" name="LMAXMIX">     2</i>
    <i type="logical" name="NLSPLINE"> F  </i>
   </separator>
   <separator name="electronic startup" >
    <i type="int" name="ISTART">     0</i>
    <i type="int" name="ICHARG">     2</i>
    <i type="int" name="INIWAV">     1</i>
   </separator>
   <separator name="electronic spin" >
    <i type="int" name="ISPIN">     1</i>
    <i type="logical" name="LNONCOLLINEAR"> F  </i>
    <v name="MAGMOM">      1.00000000      1.00000000      1.00000000      1.00000000      1.00000000      1.00000000      1.00000000      1.00000000</v>
    <i name="NUPDOWN">     -1.00000000</i>
    <i type="logical" name="LSORBIT"> F  </i>
    <v name="SAXIS">      0.00000000      0.00000000      1.00000000</v>
    <i type="logical" name="LSPIRAL"> F  </i>
    <v name="QSPIRAL">      0.00000000      0.00000000      0.00000000</v>
    <i type="logical" name="LZEROZ"> F  </i>
   </separator>
   <separator name="electronic exchange-correlation" >
    <i type="logical" name="LASPH"> F  </i>
    <i type="logical" name="LMETAGGA"> F  </i>
   </separator>
   <separator name="electronic convergence" >
    <i type="int" name="NELM">    60</i>
    <i type="int" name="NELMDL">    -5</i>
    <i type="int" name="NELMIN">     2</i>
    <i name="ENINI">    250.00000000</i>
    <separator name="electronic convergence detail" >
     <i type="logical" name="LDIAG"> T  </i>
     <i type="logical" name="LSUBROT"> T  </i>
     <i name="WEIMIN">      0.00100000</i>
     <i name="EBREAK">      0.00000208</i>
     <i name="DEPER">      0.30000000</i>
     <i type="int" name="NRMM">     4</i>
     <i name="TIME">      0.40000000</i>
    </separator>
   </separator>
   <separator name="electronic mixer" >
    <i name="AMIX">      0.40000000</i>
    <i name="BMIX">      1.00000000</i>
    <i name="AMIN">      0.10000000</i>
    <i name="AMIX_MAG">      1.60000000</i>
    <i name="BMIX_MAG">      1.00000000</i>
    <separator name="electronic mixer details" >
     <i type="int" name="IMIX">     4</i>
     <i type="int" name="MAXMIX">   -45</i>
     <i name="WC">    100.00000000</i>
     <i type="int" name="INIMIX">     1</i>
     <i type="int" name="MIXPRE">     1</i>
     <i type="int" name="MREMOVE">     5</i>
    </separator>
   </separator>
   <separator name="electronic dipolcorrection" >
    <i type="logical" name="LDIPOL"> F  </i>
    <i type="logical" name="LMONO"> F  </i>
    <i type="int" name="IDIPOL">     0</i>
    <i name="EPSILON">      1.00000000</i>
    <v name="DIPOL">   -100.00000000   -100.00000000   -100.00000000</v>
    <i name="EFIELD">      0.00000000</i>
   </separator>
  </separator>
  <separator name="grids" >
   <i type="int" name="NGX">    32</i>
   <i type="int" name="NGY">    32</i>
   <i type="int" name="NGZ">    32</i>
   <i type="int" name="NGXF">    64</i>
   <i type="int" name="NGYF">    64</i>
   <i type="int" name="NGZF">    64</i>
   <i type="logical" name="ADDGRID"> F  </i>
  </separator>
  <separator name="ionic" >
   <i type="int" name="NSW">    10</i>
   <i type="int" name="IBRION">     2</i>
   <i type="int" name="ISIF">     2</i>
   <i name="PSTRESS">      0.00000000</i>
   <i name="EDIFFG">      0.00100000</i>
   <i type="int" name="NFREE">     1</i>
   <i name="POTIM">      0.50000000</i>
   <i name="SMASS">     -3.00000000</i>
   <i name="SCALEE">      1.00000000</i>
  </separator>
  <separator name="ionic md" >
   <i name="TEBEG">      0.00010000</i>
   <i name="TEEND">      0.00010000</i>
   <i type="int" name="NBLOCK">     1</i>
   <i type="int" name="KBLOCK">    10</i>
   <i type="int" name="NPACO">   256</i>
   <i name="APACO">     16.00000000</i>
  </separator>
  <separator name="symmetry" >
   <i type="int" name="ISYM">     2</i>
   <i name="SYMPREC">      0.00001000</i>
  </separator>
  <separator name="dos" >
   <i type="logical" name="LORBIT"> F  </i>
   <v name="RWIGS">     -1.00000000     -1.00000000</v>
   <i type="int" name="NEDOS">   301</i>
   <i name="EMIN">     10.00000000</i>
   <i name="EMAX">    -10.00000000</i>
   <i name="EFERMI">      0.00000000</i>
  </separator>
  <separator name="writing" >
   <i type="int" name="NWRITE">     2</i>
   <i type="logical" name="LWAVE"> T  </i>
   <i type="logical" name="LCHARG"> T  </i>
   <i type="logical" name="LPARD"> F  </i>
   <i type="logical" name="LVTOT"> F  </i>
   <i type="logical" name="LVHAR"> F  </i>
   <i type="logical" name="LELF"> F  </i>
   <i type="logical" name="LOPTICS"> F  </i>
   <v name="STM">      0.00000000      0.00000000      0.00000000      0.00000000      0.00000000      0.00000000      0.00000000</v>
  </separator>
  <separator name="performance" >
   <i type="int" name="NPAR">     1</i>
   <i type="int" name="NSIM">     4</i>
   <i type="int" name="NBLK">    -1</i>
   <i type="logical" name="LPLANE"> T  </i>
   <i type="logical" name="LSCALAPACK"> F  </i>
   <i type="logical" name="LSCAAWARE"> F  </i>
   <i type="logical" name="LSCALU"> F  </i>
   <i type="logical" name="LASYNC"> F  </i>
   <i type="logical" name="LORBITALREAL"> F  </i>
  </separator>
  <separator name="miscellaneous" >
   <i type="int" name="IDIOT">     3</i>
   <i type="logical" name="LMUSIC"> F  </i>
   <v name="POMASS">      1.00000000     12.01100000</v>
   <v name="DARWINR">      0.00000000      0.00000000</v>
   <v name="DARWINV">      1.00000000      1.00000000</v>
   <i type="logical" name="LCORR"> T  </i>
  </separator>
  <i type="logical" name="GGA_COMPAT"> T  </i>
  <i type="logical" name="LBERRY"> F  </i>
  <i type="int" name="ICORELEVEL">     0</i>
  <i type="logical" name="LDAU"> F  </i>
  <i type="int" name="I_CONSTRAINED_M">     0</i>
  <separator name="electronic exchange-correlation" >
   <i type="string" name="GGA">--</i>
   <i type="int" name="VOSKOWN">     0</i>
   <i type="logical" name="LHFCALC"> F  </i>
   <i type="string" name="PRECFOCK"></i>
   <i type="logical" name="LHFONE"> F  </i>
   <i type="logical" name="LRHFCALC"> F  </i>
   <i type="logical" name="LTHOMAS"> F  </i>
   <i type="logical" name="LMODELHF"> F  </i>
   <i name="ENCUT4O">     -1.00000000</i>
   <i type="int" name="EXXOEP">     0</i>
   <i type="int" name="FOURORBIT">     0</i>
   <i name="AEXX">      0.00000000</i>
   <i name="HFALPHA">      0.00000000</i>
   <i name="ALDAX">      1.00000000</i>
   <i name="AGGAX">      1.00000000</i>
   <i name="ALDAC">      1.00000000</i>
   <i name="AGGAC">      1.00000000</i>
   <i type="int" name="NKREDX">     1</i>
   <i type="int" name="NKREDY">     1</i>
   <i type="int" name="NKREDZ">     1</i>
   <i type="logical" name="SHIFTRED"> F  </i>
   <i type="logical" name="ODDONLY"> F  </i>
   <i type="logical" name="EVENONLY"> F  </i>
   <i type="int" name="LMAXFOCK">     0</i>
   <i type="int" name="NMAXFOCKAE">     0</i>
   <i type="logical" name="LFOCKAEDFT"> F  </i>
   <i name="HFSCREEN">      0.00000000</i>
   <i name="HFSCREENC">      0.00000000</i>
  </separator>
  <separator name="vdW DFT" >
   <i type="logical" name="LUSE_VDW"> F  </i>
   <i name="Zab_VDW">     -0.84910000</i>
   <i name="PARAM1">      0.12340000</i>
   <i name="PARAM2">      1.00000000</i>
   <i name="PARAM3">      0.00000000</i>
  </separator>
  <separator name="model GW" >
   <i type="int" name="MODEL_GW">     0</i>
   <i name="MODEL_EPS0">     38.40000000</i>
   <i name="MODEL_ALPHA">      1.00000000</i>
  </separator>
  <separator name="linear response parameters" >
   <i type="logical" name="LEPSILON"> F  </i>
   <i type="logical" name="LRPA"> F  </i>
   <i type="logical" name="LNABLA"> F  </i>
   <i type="logical" name="LVEL"> F  </i>
   <i type="int" name="KINTER">     0</i>
   <i name="CSHIFT">      0.10000000</i>
   <i name="OMEGAMAX">     -1.00000000</i>
  </separator>
  <separator name="orbital magnetization" >
   <i type="logical" name="NUCIND"> F  </i>
   <v name="MAGPOS">      0.00000000      0.00000000      0.00000000</v>
   <i type="logical" name="LNICSALL"> T  </i>
   <i type="logical" name="ORBITALMAG"> F  </i>
   <i type="logical" name="LMAGBLOCH"> F  </i>
   <i type="logical" name="LCHIMAG"> F  </i>
   <i type="logical" name="LGAUGE"> T  </i>
   <i type="int" name="MAGATOM">     0</i>
   <v name="MAGDIPOL">      0.00000000      0.00000000      0.00000000</v>
   <v name="AVECCONST">      0.00000000      0.00000000      0.00000000</v>
  </separator>
  <separator name="response functions" >
   <i type="logical" name="LADDER"> F  </i>
   <i type="logical" name="LHARTREE"> T  </i>
   <i type="int" name="IBSE">     0</i>
   <i type="logical" name="LTCTE"> F  </i>
   <i type="logical" name="LTETE"> F  </i>
   <i type="logical" name="LFXCEPS"> F  </i>
   <i type="logical" name="L2ORDER"> F  </i>
   <i type="logical" name="LUSEW"> F  </i>
   <i name="ENCUTGW">     -2.00000000</i>
   <i name="ENCUTGWSOFT">     -2.00000000</i>
   <i name="ENCUTLF">     -1.00000000</i>
   <i type="int" name="LMAXMP2">    -1</i>
   <i name="SCISSOR">      0.00000000</i>
   <i type="int" name="NOMEGA">     0</i>
   <i type="int" name="NOMEGAR">     0</i>
   <i type="int" name="NBANDSGW">    -1</i>
   <i type="int" name="NBANDSO">    -1</i>
   <i type="int" name="NBANDSV">    -1</i>
   <i name="OPTEMAX">      0.00000000</i>
   <i type="int" name="NELM">     1</i>
   <i type="int" name="DIM">     3</i>
   <i type="int" name="ANTIRES">     0</i>
   <i name="OMEGAMAX">    -30.00000000</i>
   <i name="OMEGATL">   -200.00000000</i>
   <i type="int" name="OMEGAGRID">     0</i>
   <i name="CSHIFT">     -0.10000000</i>
   <i type="logical" name="SELFENERGY"> F  </i>
   <i type="logical" name="LSPECTRAL"> F  </i>
   <i type="logical" name="ODDONLYGW"> F  </i>
   <i type="logical" name="EVENONLYGW"> F  </i>
   <i type="int" name="NKREDLFX">     1</i>
   <i type="int" name="NKREDLFY">     1</i>
   <i type="int" name="NKREDLFZ">     1</i>
   <i type="int" name="MAXMEM">  1800</i>
   <i type="int" name="TELESCOPE">     0</i>
  </separator>
 </parameters>
 <atominfo>
  <atoms>       8 </atoms>
  <types>       2 </types>
  <array name="atoms" >
   <dimension dim="1">ion</dimension>
   <field type="string">element</field>
   <field type="int">atomtype</field>
   <set>
    <rc><c>H </c><c>   1</c></rc>
    <rc><c>H </c><c>   1</c></rc>
    <rc><c>H </c><c>   1</c></rc>
    <rc><c>H </c><c>   1</c></rc>
    <rc><c>H </c><c>   1</c></rc>
    <rc><c>H </c><c>   1</c></rc>
    <rc><c>C </c><c>   2</c></rc>
    <rc><c>C </c><c>   2</c></rc>
   </set>
  </array>
  <array name="atomtypes" >
   <dimension dim="1">type</dimension>
   <field type="int">atomspertype</field>
   <field type="string">element</field>
   <field>mass</field>
   <field>valence</field>
   <field type="string">pseudopotential</field>
   <set>
    <rc><c>   6</c><c>H </c><c>      1.00000000</c><c>      1.00000000</c><c> PAW_PBE H 15Jun2001                    </c></rc>
    <rc><c>   2</c><c>C </c><c>     12.01100000</c><c>      4.00000000</c><c> PAW_PBE C 08Apr2002                    </c></rc>
   </set>
  </array>
 </atominfo>
 <structure name="initialpos" >
  <crystal>
   <varray name="basis" >
    <v>       8.00000000       0.00000000       0.00000000 </v>
    <v>       0.00000000       8.00000000       0.00000000 </v>
    <v>       0.00000000       0.00000000       8.00000000 </v>
   </varray>
   <i name="volume">    512.00000000 </i>
   <varray name="rec_basis" >
    <v>       0.12500000       0.00000000       0.00000000 </v>
    <v>       0.00000000       0.12500000       0.00000000 </v>
    <v>       0.00000000       0.00000000       0.12500000 </v>
   </varray>
  </crystal>
  <varray name="positions" >
   <v>       0.00000000       0.12736963       0.14465362 </v>
   <v>       0.88969462       0.93631513       0.14465362 </v>
   <v>       0.11030538       0.93631513       0.14465362 </v>
   <v>       0.00000000       0.87263037       0.85534638 </v>
   <v>       0.88969462       0.06368487       0.85534638 </v>
   <v>       0.11030538       0.06368487       0.85534638 </v>
   <v>       0.00000000       0.00000000       0.09527612 </v>
   <v>       0.00000000       0.00000000       0.90472388 </v>
  </varray>
 </structure>
 <calculation>
  <scstep>
   <time name="dav">    0.34    0.34</time>
   <time name="total">    0.77    0.77</time>
   <energy>
    <i name="alphaZ">      1.51367591 </i>
    <i name="ewald">    238.82698518 </i>
    <i name="hartreedc">   -467.83007562 </i>
    <i name="XCdc">     41.11770145 </i>
    <i name="pawpsdc">     80.35084045 </i>
    <i name="pawaedc">    -82.70584614 </i>
    <i name="eentropy">     -0.01931971 </i>
    <i name="bandstr">   -161.92011682 </i>
    <i name="atom">    367.34658397 </i>
    <i name="e_fr_energy">     16.68042867 </i>
    <i name="e_wo_entrp">     16.69974838 </i>
    <i name="e_0_energy">     16.69008853 </i>
   </energy>
  </scstep>
  <scstep>
   <time name="dav">    0.31    0.31</time>
   <time name="total">    0.31    0.31</time>
   <energy>
    <i name="e_fr_energy">    -37.76349466 </i>
    <i name="e_wo_entrp">    -37.76349466 </i>
    <i name="e_0_energy">    -37.76349466 </i>
   </energy>
  </scstep>
  <scstep>
   <time name="dav">    0.34    0.34</time>
   <time name="total">    0.34    0.35</time>
   <energy>
    <i name="e_fr_energy">    -44.67103465 </i>
    <i name="e_wo_entrp">    -44.67103465 </i>
    <i name="e_0_energy">    -44.67103465 </i>
   </energy>
  </scstep>
  <scstep>
   <time name="dav">    0.34    0.34</time>
   <time name="total">    0.34    0.36</time>
   <energy>
    <i name="e_fr_energy">    -44.92125810 </i>
    <i name="e_wo_entrp">    -44.92125810 </i>
    <i name="e_0_energy">    -44.92125810 </i>
   </energy>
  </scstep>
  <scstep>
   <time name="dav">    0.34    0.34</time>
   <time name="total">    0.41    0.42</time>
   <energy>
    <i name="e_fr_energy">    -44.92790122 </i>
    <i name="e_wo_entrp">    -44.92790122 </i>
    <i name="e_0_energy">    -44.92790122 </i>
   </energy>
  </scstep>
  <scstep>
   <time name="dav">    0.31    0.31</time>
   <time name="total">    0.79    0.81</time>
   <energy>
    <i name="e_fr_energy">    -41.15710072 </i>
    <i name="e_wo_entrp">    -41.15710072 </i>
    <i name="e_0_energy">    -41.15710072 </i>
   </energy>
  </scstep>
  <scstep>
   <time name="dav">    0.31    0.31</time>
   <time name="total">    0.80    0.81</time>
   <energy>
    <i name="e_fr_energy">    -40.27512643 </i>
    <i name="e_wo_entrp">    -40.27512643 </i>
    <i name="e_0_energy">    -40.27512643 </i>
   </energy>
  </scstep>
  <scstep>
   <time name="dav">    0.34    0.34</time>
   <time name="total">    0.82    0.84</time>
   <energy>
    <i name="e_fr_energy">    -40.09168249 </i>
    <i name="e_wo_entrp">    -40.09168249 </i>
    <i name="e_0_energy">    -40.09168249 </i>
   </energy>
  </scstep>
  <scstep>
   <time name="dav">    0.31    0.31</time>
   <time name="total">    0.79    0.81</time>
   <energy>
    <i name="e_fr_energy">    -40.08183796 </i>
    <i name="e_wo_entrp">    -40.08183796 </i>
    <i name="e_0_energy">    -40.08183796 </i>
   </energy>
  </scstep>
  <scstep>
   <time name="dav">    0.31    0.31</time>
   <time name="total">    0.79    0.80</time>
   <energy>
    <i name="e_fr_energy">    -40.08727936 </i>
    <i name="e_wo_entrp">    -40.08727936 </i>
    <i name="e_0_energy">    -40.08727936 </i>
   </energy>
  </scstep>
  <scstep>
   <time name="dav">    0.31    0.31</time>
   <time name="total">    0.78    0.80</time>
   <energy>
    <i name="e_fr_energy">    -40.08590879 </i>
    <i name="e_wo_entrp">    -40.08590879 </i>
    <i name="e_0_energy">    -40.08590879 </i>
   </energy>
  </scstep>
  <scstep>
   <time name="dav">    0.27    0.27</time>
   <time name="total">    0.75    0.76</time>
   <energy>
    <i name="e_fr_energy">    -40.09257397 </i>
    <i name="e_wo_entrp">    -40.09257397 </i>
    <i name="e_0_energy">    -40.09257397 </i>
   </energy>
  </scstep>
  <scstep>
   <time name="dav">    0.30    0.31</time>
   <time name="total">    0.78    0.80</time>
   <energy>
    <i name="e_fr_energy">    -40.09482022 </i>
    <i name="e_wo_entrp">    -40.09482022 </i>
    <i name="e_0_energy">    -40.09482022 </i>
   </energy>
  </scstep>
  <scstep>
   <time name="dav">    0.31    0.31</time>
   <time name="total">    0.79    0.80</time>
   <energy>
    <i name="e_fr_energy">    -40.09607866 </i>
    <i name="e_wo_entrp">    -40.09607866 </i>
    <i name="e_0_energy">    -40.09607866 </i>
   </energy>
  </scstep>
  <scstep>
   <time name="dav">    0.31    0.31</time>
   <time name="total">    0.78    0.80</time>
   <energy>
    <i name="e_fr_energy">    -40.09624020 </i>
    <i name="e_wo_entrp">    -40.09624020 </i>
    <i name="e_0_energy">    -40.09624020 </i>
   </energy>
  </scstep>
  <scstep>
   <time name="dav">    0.28    0.28</time>
   <time name="total">    0.69    0.70</time>
   <energy>
    <i name="alphaZ">      1.51367591 </i>
    <i name="ewald">    238.82698518 </i>
    <i name="hartreedc">   -536.91955113 </i>
    <i name="XCdc">     45.36906015 </i>
    <i name="pawpsdc">    167.10506579 </i>
    <i name="pawaedc">   -169.55655423 </i>
    <i name="eentropy">      0.00000000 </i>
    <i name="bandstr">   -153.78159057 </i>
    <i name="atom">    367.34658397 </i>
    <i name="e_fr_energy">    -40.09632492 </i>
    <i name="e_wo_entrp">    -40.09632492 </i>
    <i name="e_0_energy">    -40.09632492 </i>
   </energy>
  </scstep>
  <parameters_embedded>
   <separator name="dft+d2" >
    <i type="logical" name="LVDW"> F  </i>
   </separator>
  </parameters_embedded>
  <structure>
   <crystal>
    <varray name="basis" >
     <v>       8.00000000       0.00000000       0.00000000 </v>
     <v>       0.00000000       8.00000000       0.00000000 </v>
     <v>       0.00000000       0.00000000       8.00000000 </v>
    </varray>
    <i name="volume">    512.00000000 </i>
    <varray name="rec_basis" >
     <v>       0.12500000       0.00000000       0.00000000 </v>
     <v>       0.00000000       0.12500000       0.00000000 </v>
     <v>       0.00000000       0.00000000       0.12500000 </v>
    </varray>
   </crystal>
   <varray name="positions" >
    <v>       0.00000000       0.12736963       0.14465362 </v>
    <v>       0.88969462       0.93631513       0.14465362 </v>
    <v>       0.11030538       0.93631513       0.14465362 </v>
    <v>       0.00000000       0.87263037       0.85534638 </v>
    <v>       0.88969462       0.06368487       0.85534638 </v>
    <v>       0.11030538       0.06368487       0.85534638 </v>
    <v>       0.00000000       0.00000000       0.09527612 </v>
    <v>       0.00000000       0.00000000       0.90472388 </v>
   </varray>
  </structure>
  <varray name="forces" >
   <v>       0.00000000       0.40362986       0.18630768 </v>
   <v>      -0.36212821      -0.19857606       0.19228910 </v>
   <v>       0.36212821      -0.19857606       0.19228910 </v>
   <v>       0.00000000      -0.40362986      -0.18630768 </v>
   <v>      -0.36212821       0.19857606      -0.19228910 </v>
   <v>       0.36212821       0.19857606      -0.19228910 </v>
   <v>       0.00000000       0.01397403       0.16398459 </v>
   <v>       0.00000000      -0.01397403      -0.16398459 </v>
  </varray>
  <varray name="stress" >
   <v>     -17.74534209       0.00000000       0.00000000 </v>
   <v>       0.00000000     -17.87656251       0.00183621 </v>
   <v>       0.00000000       0.00183605     -15.46628039 </v>
  </varray>
  <energy>
   <i name="e_fr_energy">    -40.09632492 </i>
   <i name="e_wo_entrp">    -40.09632492 </i>
   <i name="e_0_energy">      0.00000000 </i>
  </energy>
  <time name="totalsc">   12.24   12.58</time>
 </calculation>
 <calculation>
  <scstep>
   <time name="dav">    0.28    0.28</time>
   <time name="total">    0.76    0.77</time>
   <energy>
    <i name="alphaZ">      1.51367591 </i>
    <i name="ewald">    229.06890465 </i>
    <i name="hartreedc">   -530.40523846 </i>
    <i name="XCdc">     45.12738237 </i>
    <i name="pawpsdc">    167.10369658 </i>
    <i name="pawaedc">   -169.55523543 </i>
    <i name="eentropy">      0.00000000 </i>
    <i name="bandstr">   -150.33327606 </i>
    <i name="atom">    367.34658397 </i>
    <i name="e_fr_energy">    -40.13350647 </i>
    <i name="e_wo_entrp">    -40.13350647 </i>
    <i name="e_0_energy">    -40.13350647 </i>
   </energy>
  </scstep>
  <scstep>
   <time name="dav">    0.31    0.31</time>
   <time name="total">    0.77    0.77</time>
   <energy>
    <i name="e_fr_energy">    -40.12313452 </i>
    <i name="e_wo_entrp">    -40.12313452 </i>
    <i name="e_0_energy">    -40.12313452 </i>
   </energy>
  </scstep>
  <scstep>
   <time name="dav">    0.31    0.31</time>
   <time name="total">    0.75    0.78</time>
   <energy>
    <i name="e_fr_energy">    -40.12205675 </i>
    <i name="e_wo_entrp">    -40.12205675 </i>
    <i name="e_0_energy">    -40.12205675 </i>
   </energy>
  </scstep>
  <scstep>
   <time name="dav">    0.27    0.27</time>
   <time name="total">    0.72    0.74</time>
   <energy>
    <i name="e_fr_energy">    -40.12187094 </i>
    <i name="e_wo_entrp">    -40.12187094 </i>
    <i name="e_0_energy">    -40.12187094 </i>
   </energy>
  </scstep>
  <scstep>
   <time name="dav">    0.28    0.28</time>
   <time name="total">    0.67    0.68</time>
   <energy>
    <i name="alphaZ">      1.51367591 </i>
    <i name="ewald">    229.06890465 </i>
    <i name="hartreedc">   -527.95029920 </i>
    <i name="XCdc">     44.99935959 </i>
    <i name="pawpsdc">    159.95749502 </i>
    <i name="pawaedc">   -162.38212634 </i>
    <i name="eentropy">      0.00000000 </i>
    <i name="bandstr">   -152.67548972 </i>
    <i name="atom">    367.34658397 </i>
    <i name="e_fr_energy">    -40.12189612 </i>
    <i name="e_wo_entrp">    -40.12189612 </i>
    <i name="e_0_energy">    -40.12189612 </i>
   </energy>
  </scstep>
  <structure>
   <crystal>
    <varray name="basis" >
     <v>       8.00000000       0.00000000       0.00000000 </v>
     <v>       0.00000000       8.00000000       0.00000000 </v>
     <v>       0.00000000       0.00000000       8.00000000 </v>
    </varray>
    <i name="volume">    512.00000000 </i>
    <varray name="rec_basis" >
     <v>       0.12500000       0.00000000       0.00000000 </v>
     <v>       0.00000000       0.12500000       0.00000000 </v>
     <v>       0.00000000       0.00000000       0.12500000 </v>
    </varray>
   </crystal>
   <varray name="positions" >
    <v>       0.00000000       0.12980365       0.14577712 </v>
    <v>       0.88751087       0.93511765       0.14581319 </v>
    <v>       0.11248913       0.93511765       0.14581319 </v>
    <v>       0.00000000       0.87019635       0.85422288 </v>
    <v>       0.88751087       0.06488235       0.85418681 </v>
    <v>       0.11248913       0.06488235       0.85418681 </v>
    <v>       0.00000000       0.00008427       0.09626501 </v>
    <v>       0.00000000      -0.00008427       0.90373499 </v>
   </varray>
  </structure>
  <varray name="forces" >
   <v>       0.00000000      -0.10907261       0.01492663 </v>
   <v>       0.11433993       0.07470962       0.01382751 </v>
   <v>      -0.11433993       0.07470962       0.01382751 </v>
   <v>       0.00000000       0.10907261      -0.01492663 </v>
   <v>       0.11433993      -0.07470962      -0.01382751 </v>
   <v>      -0.11433993      -0.07470962      -0.01382751 </v>
   <v>       0.00000000      -0.02933394       0.21254303 </v>
   <v>       0.00000000       0.02933394      -0.21254303 </v>
  </varray>
  <varray name="stress" >
   <v>     -22.64448176       0.00000000       0.00000000 </v>
   <v>       0.00000000     -22.55355465       0.06031720 </v>
   <v>       0.00000000       0.06031896     -18.41199982 </v>
  </varray>
  <energy>
   <i name="e_fr_energy">    -40.12189612 </i>
   <i name="e_wo_entrp">    -40.12189612 </i>
   <i name="e_0_energy">      0.00000000 </i>
  </energy>
  <time name="totalsc">    4.67    4.77</time>
 </calculation>
 <calculation>
  <scstep>
   <time name="dav">    0.31    0.31</time>
   <time name="total">    0.78    0.78</time>
   <energy>
    <i name="alphaZ">      1.51367591 </i>
    <i name="ewald">    230.52542935 </i>
    <i name="hartreedc">   -529.08334900 </i>
    <i name="XCdc">     45.04197119 </i>
    <i name="pawpsdc">    160.13517109 </i>
    <i name="pawaedc">   -162.56166661 </i>
    <i name="eentropy">      0.00000000 </i>
    <i name="bandstr">   -153.04053957 </i>
    <i name="atom">    367.34658397 </i>
    <i name="e_fr_energy">    -40.12272367 </i>
    <i name="e_wo_entrp">    -40.12272367 </i>
    <i name="e_0_energy">    -40.12272367 </i>
   </energy>
  </scstep>
  <scstep>
   <time name="dav">    0.31    0.31</time>
   <time name="total">    0.79    0.80</time>
   <energy>
    <i name="e_fr_energy">    -40.12257871 </i>
    <i name="e_wo_entrp">    -40.12257871 </i>
    <i name="e_0_energy">    -40.12257871 </i>
   </energy>
  </scstep>
  <scstep>
   <time name="dav">    0.30    0.30</time>
   <time name="total">    0.74    0.76</time>
   <energy>
    <i name="alphaZ">      1.51367591 </i>
    <i name="ewald">    230.52542935 </i>
    <i name="hartreedc">   -529.45493261 </i>
    <i name="XCdc">     45.06195826 </i>
    <i name="pawpsdc">    161.11254829 </i>
    <i name="pawaedc">   -163.54262689 </i>
    <i name="eentropy">      0.00000000 </i>
    <i name="bandstr">   -152.68521932 </i>
    <i name="atom">    367.34658397 </i>
    <i name="e_fr_energy">    -40.12258302 </i>
    <i name="e_wo_entrp">    -40.12258302 </i>
    <i name="e_0_energy">    -40.12258302 </i>
   </energy>
  </scstep>
  <structure>
   <crystal>
    <varray name="basis" >
     <v>       8.00000000       0.00000000       0.00000000 </v>
     <v>       0.00000000       8.00000000       0.00000000 </v>
     <v>       0.00000000       0.00000000       8.00000000 </v>
    </varray>
    <i name="volume">    512.00000000 </i>
    <varray name="rec_basis" >
     <v>       0.12500000       0.00000000       0.00000000 </v>
     <v>       0.00000000       0.12500000       0.00000000 </v>
     <v>       0.00000000       0.00000000       0.12500000 </v>
    </varray>
   </crystal>
   <varray name="positions" >
    <v>       0.00000000       0.12943564       0.14560726 </v>
    <v>       0.88784104       0.93529870       0.14563787 </v>
    <v>       0.11215896       0.93529870       0.14563787 </v>
    <v>       0.00000000       0.87056436       0.85439274 </v>
    <v>       0.88784104       0.06470130       0.85436213 </v>
    <v>       0.11215896       0.06470130       0.85436213 </v>
    <v>       0.00000000       0.00007153       0.09611549 </v>
    <v>       0.00000000      -0.00007153       0.90388451 </v>
   </varray>
  </structure>
  <varray name="forces" >
   <v>       0.00000000      -0.01908488       0.04656290 </v>
   <v>       0.03180779       0.02755320       0.04655971 </v>
   <v>      -0.03180779       0.02755320       0.04655971 </v>
   <v>       0.00000000       0.01908488      -0.04656290 </v>
   <v>       0.03180779      -0.02755320      -0.04655971 </v>
   <v>      -0.03180779      -0.02755320      -0.04655971 </v>
   <v>       0.00000000      -0.02211793       0.21146315 </v>
   <v>       0.00000000       0.02211793      -0.21146315 </v>
  </varray>
  <varray name="stress" >
   <v>     -22.31609305       0.00000000       0.00000000 </v>
   <v>       0.00000000     -22.25637811       0.04965819 </v>
   <v>       0.00000000       0.04965846     -18.21183632 </v>
  </varray>
  <energy>
   <i name="e_fr_energy">    -40.12258302 </i>
   <i name="e_wo_entrp">    -40.12258302 </i>
   <i name="e_0_energy">      0.00000000 </i>
  </energy>
  <time name="totalsc">    3.40    3.46</time>
 </calculation>
 <calculation>
  <scstep>
   <time name="dav">    0.30    0.30</time>
   <time name="total">    0.83    0.83</time>
   <energy>
    <i name="alphaZ">      1.51367591 </i>
    <i name="ewald">    228.72411551 </i>
    <i name="hartreedc">   -527.77959815 </i>
    <i name="XCdc">     45.03957450 </i>
    <i name="pawpsdc">    161.10933542 </i>
    <i name="pawaedc">   -163.53938809 </i>
    <i name="eentropy">      0.00000000 </i>
    <i name="bandstr">   -152.53602511 </i>
    <i name="atom">    367.34658397 </i>
    <i name="e_fr_energy">    -40.12172604 </i>
    <i name="e_wo_entrp">    -40.12172604 </i>
    <i name="e_0_energy">    -40.12172604 </i>
   </energy>
  </scstep>
  <scstep>
   <time name="dav">    0.30    0.30</time>
   <time name="total">    0.83    0.83</time>
   <energy>
    <i name="e_fr_energy">    -40.12154222 </i>
    <i name="e_wo_entrp">    -40.12154222 </i>
    <i name="e_0_energy">    -40.12154222 </i>
   </energy>
  </scstep>
  <scstep>
   <time name="dav">    0.30    0.30</time>
   <time name="total">    0.83    0.84</time>
   <energy>
    <i name="e_fr_energy">    -40.12147086 </i>
    <i name="e_wo_entrp">    -40.12147086 </i>
    <i name="e_0_energy">    -40.12147086 </i>
   </energy>
  </scstep>
  <scstep>
   <time name="dav">    0.37    0.37</time>
   <time name="total">    0.82    0.84</time>
   <energy>
    <i name="alphaZ">      1.51367591 </i>
    <i name="ewald">    228.72411551 </i>
    <i name="hartreedc">   -527.68327940 </i>
    <i name="XCdc">     45.04457573 </i>
    <i name="pawpsdc">    161.00880176 </i>
    <i name="pawaedc">   -163.43760658 </i>
    <i name="eentropy">      0.00000000 </i>
    <i name="bandstr">   -152.63833396 </i>
    <i name="atom">    367.34658397 </i>
    <i name="e_fr_energy">    -40.12146706 </i>
    <i name="e_wo_entrp">    -40.12146706 </i>
    <i name="e_0_energy">    -40.12146706 </i>
   </energy>
  </scstep>
  <structure>
   <crystal>
    <varray name="basis" >
     <v>       8.00000000       0.00000000       0.00000000 </v>
     <v>       0.00000000       8.00000000       0.00000000 </v>
     <v>       0.00000000       0.00000000       8.00000000 </v>
    </varray>
    <i name="volume">    512.00000000 </i>
    <varray name="rec_basis" >
     <v>       0.12500000       0.00000000       0.00000000 </v>
     <v>       0.00000000       0.12500000       0.00000000 </v>
     <v>       0.00000000       0.00000000       0.12500000 </v>
    </varray>
   </crystal>
   <varray name="positions" >
    <v>       0.00000000       0.12945814       0.14594146 </v>
    <v>       0.88790674       0.93539385       0.14597404 </v>
    <v>       0.11209326       0.93539385       0.14597404 </v>
    <v>       0.00000000       0.87054186       0.85405854 </v>
    <v>       0.88790674       0.06460615       0.85402596 </v>
    <v>       0.11209326       0.06460615       0.85402596 </v>
    <v>       0.00000000      -0.00005318       0.09740661 </v>
    <v>       0.00000000       0.00005318       0.90259339 </v>
   </varray>
  </structure>
  <varray name="forces" >
   <v>       0.00000000       0.00289793       0.06740222 </v>
   <v>      -0.03408337      -0.01604003       0.08213424 </v>
   <v>       0.03408337      -0.01604003       0.08213424 </v>
   <v>       0.00000000      -0.00289793      -0.06740222 </v>
   <v>      -0.03408337       0.01604003      -0.08213424 </v>
   <v>       0.03408337       0.01604003      -0.08213424 </v>
   <v>       0.00000000       0.05725609      -0.39996581 </v>
   <v>       0.00000000      -0.05725609       0.39996581 </v>
  </varray>
  <varray name="stress" >
   <v>     -21.36906558       0.00000000       0.00000000 </v>
   <v>       0.00000000     -21.62890007      -0.04259943 </v>
   <v>       0.00000000      -0.04259945     -19.91476159 </v>
  </varray>
  <energy>
   <i name="e_fr_energy">    -40.12146706 </i>
   <i name="e_wo_entrp">    -40.12146706 </i>
   <i name="e_0_energy">      0.00000000 </i>
  </energy>
  <time name="totalsc">    4.39    4.47</time>
 </calculation>
 <calculation>
  <scstep>
   <time name="dav">    0.30    0.30</time>
   <time name="total">    0.83    0.83</time>
   <energy>
    <i name="alphaZ">      1.51367591 </i>
    <i name="ewald">    229.75763157 </i>
    <i name="hartreedc">   -528.65966973 </i>
    <i name="XCdc">     45.05845876 </i>
    <i name="pawpsdc">    161.02278350 </i>
    <i name="pawaedc">   -163.45173316 </i>
    <i name="eentropy">      0.00000000 </i>
    <i name="bandstr">   -152.71147779 </i>
    <i name="atom">    367.34658397 </i>
    <i name="e_fr_energy">    -40.12374696 </i>
    <i name="e_wo_entrp">    -40.12374696 </i>
    <i name="e_0_energy">    -40.12374696 </i>
   </energy>
  </scstep>
  <scstep>
   <time name="dav">    0.33    0.34</time>
   <time name="total">    0.86    0.86</time>
   <energy>
    <i name="e_fr_energy">    -40.12367361 </i>
    <i name="e_wo_entrp">    -40.12367361 </i>
    <i name="e_0_energy">    -40.12367361 </i>
   </energy>
  </scstep>
  <scstep>
   <time name="dav">    0.37    0.37</time>
   <time name="total">    0.82    0.84</time>
   <energy>
    <i name="alphaZ">      1.51367591 </i>
    <i name="ewald">    229.75763157 </i>
    <i name="hartreedc">   -528.73094398 </i>
    <i name="XCdc">     45.05564056 </i>
    <i name="pawpsdc">    161.10573899 </i>
    <i name="pawaedc">   -163.53533800 </i>
    <i name="eentropy">      0.00000000 </i>
    <i name="bandstr">   -152.63663652 </i>
    <i name="atom">    367.34658397 </i>
    <i name="e_fr_energy">    -40.12364750 </i>
    <i name="e_wo_entrp">    -40.12364750 </i>
    <i name="e_0_energy">    -40.12364750 </i>
   </energy>
  </scstep>
  <structure>
   <crystal>
    <varray name="basis" >
     <v>       8.00000000       0.00000000       0.00000000 </v>
     <v>       0.00000000       8.00000000       0.00000000 </v>
     <v>       0.00000000       0.00000000       8.00000000 </v>
    </varray>
    <i name="volume">    512.00000000 </i>
    <varray name="rec_basis" >
     <v>       0.12500000       0.00000000       0.00000000 </v>
     <v>       0.00000000       0.12500000       0.00000000 </v>
     <v>       0.00000000       0.00000000       0.12500000 </v>
    </varray>
   </crystal>
   <varray name="positions" >
    <v>       0.00000000       0.12944514       0.14574846 </v>
    <v>       0.88786880       0.93533890       0.14577991 </v>
    <v>       0.11213120       0.93533890       0.14577991 </v>
    <v>       0.00000000       0.87055486       0.85425154 </v>
    <v>       0.88786880       0.06466110       0.85422009 </v>
    <v>       0.11213120       0.06466110       0.85422009 </v>
    <v>       0.00000000       0.00001884       0.09666102 </v>
    <v>       0.00000000      -0.00001884       0.90333898 </v>
   </varray>
  </structure>
  <varray name="forces" >
   <v>       0.00000000      -0.01112894       0.05676086 </v>
   <v>       0.00533659       0.00982893       0.06299790 </v>
   <v>      -0.00533659       0.00982893       0.06299790 </v>
   <v>       0.00000000       0.01112894      -0.05676086 </v>
   <v>       0.00533659      -0.00982893      -0.06299790 </v>
   <v>      -0.00533659      -0.00982893      -0.06299790 </v>
   <v>       0.00000000       0.00983390      -0.03873045 </v>
   <v>       0.00000000      -0.00983390       0.03873045 </v>
  </varray>
  <varray name="stress" >
   <v>     -21.92826513       0.00000000       0.00000000 </v>
   <v>       0.00000000     -22.00750039       0.01294868 </v>
   <v>       0.00000000       0.01294930     -18.93263436 </v>
  </varray>
  <energy>
   <i name="e_fr_energy">    -40.12364750 </i>
   <i name="e_wo_entrp">    -40.12364750 </i>
   <i name="e_0_energy">      0.00000000 </i>
  </energy>
  <time name="totalsc">    3.49    3.58</time>
  <eigenvalues>
   <array>
    <dimension dim="1">band</dimension>
    <dimension dim="2">kpoint</dimension>
    <dimension dim="3">spin</dimension>
    <field>eigene</field>
    <field>occ</field>
    <set>
     <set comment="spin 1">
      <set comment="kpoint 1">
       <r>  -18.1409    1.0000 </r>
       <r>  -14.6077    1.0000 </r>
       <r>   -9.9939    1.0000 </r>
       <r>   -9.9912    1.0000 </r>
       <r>   -8.3226    1.0000 </r>
       <r>   -7.6331    1.0000 </r>
       <r>   -7.6288    1.0000 </r>
       <r>   -0.5981    0.0000 </r>
       <r>    1.3226    0.0000 </r>
       <r>    1.3776    0.0000 </r>
       <r>    1.4098    0.0000 </r>
       <r>    1.5318    0.0000 </r>
      </set>
     </set>
    </set>
   </array>
  </eigenvalues>
  <separator name="orbital magnetization" >
   <v name="MAGDIPOLOUT">      0.00000000      0.00000000      0.00000000</v>
  </separator>
  <dos>
   <i name="efermi">     -6.64735241 </i>
   <total>
    <array>
     <dimension dim="1">gridpoints</dimension>
     <dimension dim="2">spin</dimension>
     <field>energy</field>
     <field>total</field>
     <field>integrated</field>
     <set>
      <set comment="spin 1">
       <r>   -20.1409     0.0000     0.0000 </r>
       <r>   -20.0620     0.0000     0.0000 </r>
       <r>   -19.9831     0.0000     0.0000 </r>
       <r>   -19.9042     0.0000     0.0000 </r>
       <r>   -19.8253     0.0000     0.0000 </r>
       <r>   -19.7464     0.0000     0.0000 </r>
       <r>   -19.6675     0.0000     0.0000 </r>
       <r>   -19.5886     0.0000     0.0000 </r>
       <r>   -19.5097     0.0000     0.0000 </r>
       <r>   -19.4308     0.0000     0.0000 </r>
       <r>   -19.3519     0.0000     0.0000 </r>
       <r>   -19.2729     0.0000     0.0000 </r>
       <r>   -19.1940     0.0000     0.0000 </r>
       <r>   -19.1151     0.0000     0.0000 </r>
       <r>   -19.0362     0.0000     0.0000 </r>
       <r>   -18.9573     0.0000     0.0000 </r>
       <r>   -18.8784     0.0000     0.0000 </r>
       <r>   -18.7995     0.0000     0.0000 </r>
       <r>   -18.7206     0.0005     0.0000 </r>
       <r>   -18.6417     0.0045     0.0004 </r>
       <r>   -18.5628     0.0311     0.0029 </r>
       <r>   -18.4839     0.1579     0.0153 </r>
       <r>   -18.4050     0.5907     0.0619 </r>
       <r>   -18.3260     1.6306     0.1906 </r>
       <r>   -18.2471     3.3222     0.4528 </r>
       <r>   -18.1682     4.9971     0.8471 </r>
       <r>   -18.0893     5.5495     1.2850 </r>
       <r>   -18.0104     4.5504     1.6440 </r>
       <r>   -17.9315     2.7547     1.8614 </r>
       <r>   -17.8526     1.2311     1.9586 </r>
       <r>   -17.7737     0.4061     1.9906 </r>
       <r>   -17.6948     0.0988     1.9984 </r>
       <r>   -17.6159     0.0177     1.9998 </r>
       <r>   -17.5370     0.0023     2.0000 </r>
       <r>   -17.4580     0.0002     2.0000 </r>
       <r>   -17.3791     0.0000     2.0000 </r>
       <r>   -17.3002     0.0000     2.0000 </r>
       <r>   -17.2213     0.0000     2.0000 </r>
       <r>   -17.1424     0.0000     2.0000 </r>
       <r>   -17.0635     0.0000     2.0000 </r>
       <r>   -16.9846     0.0000     2.0000 </r>
       <r>   -16.9057     0.0000     2.0000 </r>
       <r>   -16.8268     0.0000     2.0000 </r>
       <r>   -16.7479     0.0000     2.0000 </r>
       <r>   -16.6690     0.0000     2.0000 </r>
       <r>   -16.5900     0.0000     2.0000 </r>
       <r>   -16.5111     0.0000     2.0000 </r>
       <r>   -16.4322     0.0000     2.0000 </r>
       <r>   -16.3533     0.0000     2.0000 </r>
       <r>   -16.2744     0.0000     2.0000 </r>
       <r>   -16.1955     0.0000     2.0000 </r>
       <r>   -16.1166     0.0000     2.0000 </r>
       <r>   -16.0377     0.0000     2.0000 </r>
       <r>   -15.9588     0.0000     2.0000 </r>
       <r>   -15.8799     0.0000     2.0000 </r>
       <r>   -15.8010     0.0000     2.0000 </r>
       <r>   -15.7220     0.0000     2.0000 </r>
       <r>   -15.6431     0.0000     2.0000 </r>
       <r>   -15.5642     0.0000     2.0000 </r>
       <r>   -15.4853     0.0000     2.0000 </r>
       <r>   -15.4064     0.0000     2.0000 </r>
       <r>   -15.3275     0.0000     2.0000 </r>
       <r>   -15.2486     0.0001     2.0000 </r>
       <r>   -15.1697     0.0008     2.0001 </r>
       <r>   -15.0908     0.0072     2.0006 </r>
       <r>   -15.0119     0.0460     2.0043 </r>
       <r>   -14.9330     0.2179     2.0215 </r>
       <r>   -14.8540     0.7614     2.0815 </r>
       <r>   -14.7751     1.9635     2.2365 </r>
       <r>   -14.6962     3.7375     2.5314 </r>
       <r>   -14.6173     5.2525     2.9459 </r>
       <r>   -14.5384     5.4500     3.3759 </r>
       <r>   -14.4595     4.1752     3.7054 </r>
       <r>   -14.3806     2.3616     3.8917 </r>
       <r>   -14.3017     0.9860     3.9695 </r>
       <r>   -14.2228     0.3038     3.9935 </r>
       <r>   -14.1439     0.0691     3.9990 </r>
       <r>   -14.0650     0.0116     3.9999 </r>
       <r>   -13.9860     0.0014     4.0000 </r>
       <r>   -13.9071     0.0001     4.0000 </r>
       <r>   -13.8282     0.0000     4.0000 </r>
       <r>   -13.7493     0.0000     4.0000 </r>
       <r>   -13.6704     0.0000     4.0000 </r>
       <r>   -13.5915     0.0000     4.0000 </r>
       <r>   -13.5126     0.0000     4.0000 </r>
       <r>   -13.4337     0.0000     4.0000 </r>
       <r>   -13.3548     0.0000     4.0000 </r>
       <r>   -13.2759     0.0000     4.0000 </r>
       <r>   -13.1970     0.0000     4.0000 </r>
       <r>   -13.1180     0.0000     4.0000 </r>
       <r>   -13.0391     0.0000     4.0000 </r>
       <r>   -12.9602     0.0000     4.0000 </r>
       <r>   -12.8813     0.0000     4.0000 </r>
       <r>   -12.8024     0.0000     4.0000 </r>
       <r>   -12.7235     0.0000     4.0000 </r>
       <r>   -12.6446     0.0000     4.0000 </r>
       <r>   -12.5657     0.0000     4.0000 </r>
       <r>   -12.4868     0.0000     4.0000 </r>
       <r>   -12.4079     0.0000     4.0000 </r>
       <r>   -12.3290     0.0000     4.0000 </r>
       <r>   -12.2500     0.0000     4.0000 </r>
       <r>   -12.1711     0.0000     4.0000 </r>
       <r>   -12.0922     0.0000     4.0000 </r>
       <r>   -12.0133     0.0000     4.0000 </r>
       <r>   -11.9344     0.0000     4.0000 </r>
       <r>   -11.8555     0.0000     4.0000 </r>
       <r>   -11.7766     0.0000     4.0000 </r>
       <r>   -11.6977     0.0000     4.0000 </r>
       <r>   -11.6188     0.0000     4.0000 </r>
       <r>   -11.5399     0.0000     4.0000 </r>
       <r>   -11.4610     0.0000     4.0000 </r>
       <r>   -11.3820     0.0000     4.0000 </r>
       <r>   -11.3031     0.0000     4.0000 </r>
       <r>   -11.2242     0.0000     4.0000 </r>
       <r>   -11.1453     0.0000     4.0000 </r>
       <r>   -11.0664     0.0000     4.0000 </r>
       <r>   -10.9875     0.0000     4.0000 </r>
       <r>   -10.9086     0.0000     4.0000 </r>
       <r>   -10.8297     0.0000     4.0000 </r>
       <r>   -10.7508     0.0000     4.0000 </r>
       <r>   -10.6719     0.0000     4.0000 </r>
       <r>   -10.5930     0.0005     4.0000 </r>
       <r>   -10.5140     0.0052     4.0005 </r>
       <r>   -10.4351     0.0387     4.0035 </r>
       <r>   -10.3562     0.2124     4.0203 </r>
       <r>   -10.2773     0.8604     4.0882 </r>
       <r>   -10.1984     2.5721     4.2911 </r>
       <r>   -10.1195     5.6754     4.7390 </r>
       <r>   -10.0406     9.2449     5.4685 </r>
       <r>    -9.9617    11.1188     6.3458 </r>
       <r>    -9.8828     9.8738     7.1250 </r>
       <r>    -9.8039     6.4739     7.6358 </r>
       <r>    -9.7250     3.1338     7.8831 </r>
       <r>    -9.6460     1.1197     7.9714 </r>
       <r>    -9.5671     0.2952     7.9947 </r>
       <r>    -9.4882     0.0574     7.9993 </r>
       <r>    -9.4093     0.0082     7.9999 </r>
       <r>    -9.3304     0.0009     8.0000 </r>
       <r>    -9.2515     0.0001     8.0000 </r>
       <r>    -9.1726     0.0000     8.0000 </r>
       <r>    -9.0937     0.0000     8.0000 </r>
       <r>    -9.0148     0.0000     8.0000 </r>
       <r>    -8.9359     0.0002     8.0000 </r>
       <r>    -8.8570     0.0018     8.0002 </r>
       <r>    -8.7781     0.0142     8.0013 </r>
       <r>    -8.6991     0.0820     8.0078 </r>
       <r>    -8.6202     0.3493     8.0353 </r>
       <r>    -8.5413     1.0975     8.1219 </r>
       <r>    -8.4624     2.5452     8.3228 </r>
       <r>    -8.3835     4.3573     8.6666 </r>
       <r>    -8.3046     5.5074     9.1012 </r>
       <r>    -8.2257     5.1401     9.5068 </r>
       <r>    -8.1468     3.5473     9.7867 </r>
       <r>    -8.0679     1.8455     9.9323 </r>
       <r>    -7.9890     0.9136    10.0044 </r>
       <r>    -7.9101     1.1277    10.0934 </r>
       <r>    -7.8311     2.7884    10.3134 </r>
       <r>    -7.7522     5.9427    10.7824 </r>
       <r>    -7.6733     9.4630    11.5291 </r>
       <r>    -7.5944    11.1356    12.4078 </r>
       <r>    -7.5155     9.6764    13.1713 </r>
       <r>    -7.4366     6.2085    13.6612 </r>
       <r>    -7.3577     2.9410    13.8933 </r>
       <r>    -7.2788     1.0284    13.9745 </r>
       <r>    -7.1999     0.2654    13.9954 </r>
       <r>    -7.1210     0.0505    13.9994 </r>
       <r>    -7.0421     0.0071    13.9999 </r>
       <r>    -6.9631     0.0007    14.0000 </r>
       <r>    -6.8842     0.0001    14.0000 </r>
       <r>    -6.8053     0.0000    14.0000 </r>
       <r>    -6.7264     0.0000    14.0000 </r>
       <r>    -6.6475     0.0000    14.0000 </r>
       <r>    -6.5686     0.0000    14.0000 </r>
       <r>    -6.4897     0.0000    14.0000 </r>
       <r>    -6.4108     0.0000    14.0000 </r>
       <r>    -6.3319     0.0000    14.0000 </r>
       <r>    -6.2530     0.0000    14.0000 </r>
       <r>    -6.1741     0.0000    14.0000 </r>
       <r>    -6.0951     0.0000    14.0000 </r>
       <r>    -6.0162     0.0000    14.0000 </r>
       <r>    -5.9373     0.0000    14.0000 </r>
       <r>    -5.8584     0.0000    14.0000 </r>
       <r>    -5.7795     0.0000    14.0000 </r>
       <r>    -5.7006     0.0000    14.0000 </r>
       <r>    -5.6217     0.0000    14.0000 </r>
       <r>    -5.5428     0.0000    14.0000 </r>
       <r>    -5.4639     0.0000    14.0000 </r>
       <r>    -5.3850     0.0000    14.0000 </r>
       <r>    -5.3061     0.0000    14.0000 </r>
       <r>    -5.2271     0.0000    14.0000 </r>
       <r>    -5.1482     0.0000    14.0000 </r>
       <r>    -5.0693     0.0000    14.0000 </r>
       <r>    -4.9904     0.0000    14.0000 </r>
       <r>    -4.9115     0.0000    14.0000 </r>
       <r>    -4.8326     0.0000    14.0000 </r>
       <r>    -4.7537     0.0000    14.0000 </r>
       <r>    -4.6748     0.0000    14.0000 </r>
       <r>    -4.5959     0.0000    14.0000 </r>
       <r>    -4.5170     0.0000    14.0000 </r>
       <r>    -4.4381     0.0000    14.0000 </r>
       <r>    -4.3591     0.0000    14.0000 </r>
       <r>    -4.2802     0.0000    14.0000 </r>
       <r>    -4.2013     0.0000    14.0000 </r>
       <r>    -4.1224     0.0000    14.0000 </r>
       <r>    -4.0435     0.0000    14.0000 </r>
       <r>    -3.9646     0.0000    14.0000 </r>
       <r>    -3.8857     0.0000    14.0000 </r>
       <r>    -3.8068     0.0000    14.0000 </r>
       <r>    -3.7279     0.0000    14.0000 </r>
       <r>    -3.6490     0.0000    14.0000 </r>
       <r>    -3.5701     0.0000    14.0000 </r>
       <r>    -3.4911     0.0000    14.0000 </r>
       <r>    -3.4122     0.0000    14.0000 </r>
       <r>    -3.3333     0.0000    14.0000 </r>
       <r>    -3.2544     0.0000    14.0000 </r>
       <r>    -3.1755     0.0000    14.0000 </r>
       <r>    -3.0966     0.0000    14.0000 </r>
       <r>    -3.0177     0.0000    14.0000 </r>
       <r>    -2.9388     0.0000    14.0000 </r>
       <r>    -2.8599     0.0000    14.0000 </r>
       <r>    -2.7810     0.0000    14.0000 </r>
       <r>    -2.7021     0.0000    14.0000 </r>
       <r>    -2.6231     0.0000    14.0000 </r>
       <r>    -2.5442     0.0000    14.0000 </r>
       <r>    -2.4653     0.0000    14.0000 </r>
       <r>    -2.3864     0.0000    14.0000 </r>
       <r>    -2.3075     0.0000    14.0000 </r>
       <r>    -2.2286     0.0000    14.0000 </r>
       <r>    -2.1497     0.0000    14.0000 </r>
       <r>    -2.0708     0.0000    14.0000 </r>
       <r>    -1.9919     0.0000    14.0000 </r>
       <r>    -1.9130     0.0000    14.0000 </r>
       <r>    -1.8341     0.0000    14.0000 </r>
       <r>    -1.7551     0.0000    14.0000 </r>
       <r>    -1.6762     0.0000    14.0000 </r>
       <r>    -1.5973     0.0000    14.0000 </r>
       <r>    -1.5184     0.0000    14.0000 </r>
       <r>    -1.4395     0.0000    14.0000 </r>
       <r>    -1.3606     0.0000    14.0000 </r>
       <r>    -1.2817     0.0000    14.0000 </r>
       <r>    -1.2028     0.0002    14.0000 </r>
       <r>    -1.1239     0.0023    14.0002 </r>
       <r>    -1.0450     0.0175    14.0016 </r>
       <r>    -0.9661     0.0975    14.0093 </r>
       <r>    -0.8871     0.4017    14.0410 </r>
       <r>    -0.8082     1.2211    14.1373 </r>
       <r>    -0.7293     2.7394    14.3535 </r>
       <r>    -0.6504     4.5367    14.7115 </r>
       <r>    -0.5715     5.5472    15.1492 </r>
       <r>    -0.4926     5.0080    15.5444 </r>
       <r>    -0.4137     3.3381    15.8078 </r>
       <r>    -0.3348     1.6426    15.9374 </r>
       <r>    -0.2559     0.5966    15.9845 </r>
       <r>    -0.1770     0.1599    15.9971 </r>
       <r>    -0.0981     0.0316    15.9996 </r>
       <r>    -0.0191     0.0046    16.0000 </r>
       <r>     0.0598     0.0005    16.0000 </r>
       <r>     0.1387     0.0000    16.0000 </r>
       <r>     0.2176     0.0000    16.0000 </r>
       <r>     0.2965     0.0000    16.0000 </r>
       <r>     0.3754     0.0000    16.0000 </r>
       <r>     0.4543     0.0000    16.0000 </r>
       <r>     0.5332     0.0000    16.0000 </r>
       <r>     0.6121     0.0000    16.0000 </r>
       <r>     0.6910     0.0001    16.0000 </r>
       <r>     0.7699     0.0014    16.0001 </r>
       <r>     0.8489     0.0120    16.0011 </r>
       <r>     0.9278     0.0800    16.0074 </r>
       <r>     1.0067     0.3977    16.0388 </r>
       <r>     1.0856     1.4871    16.1561 </r>
       <r>     1.1645     4.1996    16.4875 </r>
       <r>     1.2434     9.0129    17.1987 </r>
       <r>     1.3223    14.8268    18.3687 </r>
       <r>     1.4012    18.9213    19.8617 </r>
       <r>     1.4801    19.0142    21.3621 </r>
       <r>     1.5590    15.2757    22.5675 </r>
       <r>     1.6379     9.9056    23.3491 </r>
       <r>     1.7168     5.1779    23.7577 </r>
       <r>     1.7958     2.1551    23.9278 </r>
       <r>     1.8747     0.7014    23.9831 </r>
       <r>     1.9536     0.1753    23.9970 </r>
       <r>     2.0325     0.0332    23.9996 </r>
       <r>     2.1114     0.0047    24.0000 </r>
       <r>     2.1903     0.0005    24.0000 </r>
       <r>     2.2692     0.0000    24.0000 </r>
       <r>     2.3481     0.0000    24.0000 </r>
       <r>     2.4270     0.0000    24.0000 </r>
       <r>     2.5059     0.0000    24.0000 </r>
       <r>     2.5848     0.0000    24.0000 </r>
       <r>     2.6638     0.0000    24.0000 </r>
       <r>     2.7427     0.0000    24.0000 </r>
       <r>     2.8216     0.0000    24.0000 </r>
       <r>     2.9005     0.0000    24.0000 </r>
       <r>     2.9794     0.0000    24.0000 </r>
       <r>     3.0583     0.0000    24.0000 </r>
       <r>     3.1372     0.0000    24.0000 </r>
       <r>     3.2161     0.0000    24.0000 </r>
       <r>     3.2950     0.0000    24.0000 </r>
       <r>     3.3739     0.0000    24.0000 </r>
       <r>     3.4528     0.0000    24.0000 </r>
       <r>     3.5318     0.0000    24.0000 </r>
      </set>
     </set>
    </array>
   </total>
  </dos>
 </calculation>
 <structure name="finalpos" >
  <crystal>
   <varray name="basis" >
    <v>       8.00000000       0.00000000       0.00000000 </v>
    <v>       0.00000000       8.00000000       0.00000000 </v>
    <v>       0.00000000       0.00000000       8.00000000 </v>
   </varray>
   <i name="volume">    512.00000000 </i>
   <varray name="rec_basis" >
    <v>       0.12500000       0.00000000       0.00000000 </v>
    <v>       0.00000000       0.12500000       0.00000000 </v>
    <v>       0.00000000       0.00000000       0.12500000 </v>
   </varray>
  </crystal>
  <varray name="positions" >
   <v>       0.00000000       0.12944514       0.14574846 </v>
   <v>       0.88786880       0.93533890       0.14577991 </v>
   <v>       0.11213120       0.93533890       0.14577991 </v>
   <v>       0.00000000       0.87055486       0.85425154 </v>
   <v>       0.88786880       0.06466110       0.85422009 </v>
   <v>       0.11213120       0.06466110       0.85422009 </v>
   <v>       0.00000000       0.00001884       0.09666102 </v>
   <v>       0.00000000      -0.00001884       0.90333898 </v>
  </varray>
 </structure>
</modeling>
