   5   5   0   0
  0.1024000E+03  0.8000000E-09  0.8000000E-09  0.8000000E-09  0.5000000E-15
  1.000000000000000E-004
  CAR 
 unknown system                          
      2.23146590    -25.02800860  301     -5.03737236      1.00000000
    -25.028  0.0000E+00  0.0000E+00
    -24.937  0.0000E+00  0.0000E+00
    -24.846  0.0000E+00  0.0000E+00
    -24.755  0.0000E+00  0.0000E+00
    -24.665  0.0000E+00  0.0000E+00
    -24.574  0.0000E+00  0.0000E+00
    -24.483  0.0000E+00  0.0000E+00
    -24.392  0.0000E+00  0.0000E+00
    -24.301  0.0000E+00  0.0000E+00
    -24.210  0.1222E-15  0.1110E-16
    -24.119  0.1295E-13  0.1188E-14
    -24.028  0.1638E-11  0.1500E-12
    -23.938  0.1370E-09  0.1259E-10
    -23.847  0.7632E-08  0.7060E-09
    -23.756  0.2836E-06  0.2647E-07
    -23.665  0.7032E-05  0.6654E-06
    -23.574  0.1165E-03  0.1125E-04
    -23.483  0.1290E-02  0.1284E-03
    -23.392  0.9557E-02  0.9969E-03
    -23.302  0.4743E-01  0.5306E-02
    -23.211  0.1577E+00  0.1964E-01
    -23.120  0.3518E+00  0.5161E-01
    -23.029  0.5265E+00  0.9945E-01
    -22.938  0.5288E+00  0.1475E+00
    -22.847  0.3564E+00  0.1799E+00
    -22.756  0.1611E+00  0.1945E+00
    -22.666  0.4887E-01  0.1990E+00
    -22.575  0.9932E-02  0.1999E+00
    -22.484  0.1352E-02  0.2000E+00
    -22.393  0.1231E-03  0.2000E+00
    -22.302  0.7499E-05  0.2000E+00
    -22.211  0.3050E-06  0.2000E+00
    -22.120  0.8280E-08  0.2000E+00
    -22.029  0.1499E-09  0.2000E+00
    -21.939  0.1808E-11  0.2000E+00
    -21.848  0.1466E-13  0.2000E+00
    -21.757  0.0000E+00  0.2000E+00
    -21.666  0.0000E+00  0.2000E+00
    -21.575  0.0000E+00  0.2000E+00
    -21.484  0.0000E+00  0.2000E+00
    -21.393  0.0000E+00  0.2000E+00
    -21.303  0.0000E+00  0.2000E+00
    -21.212  0.0000E+00  0.2000E+00
    -21.121  0.0000E+00  0.2000E+00
    -21.030  0.3666E-15  0.2000E+00
    -20.939  0.3556E-13  0.2000E+00
    -20.848  0.4528E-11  0.2000E+00
    -20.757  0.3814E-09  0.2000E+00
    -20.666  0.2141E-07  0.2000E+00
    -20.576  0.8011E-06  0.2000E+00
    -20.485  0.2001E-04  0.2000E+00
    -20.394  0.3337E-03  0.2000E+00
    -20.303  0.3722E-02  0.2004E+00
    -20.212  0.2777E-01  0.2029E+00
    -20.121  0.1388E+00  0.2155E+00
    -20.030  0.4649E+00  0.2578E+00
    -19.940  0.1044E+01  0.3526E+00
    -19.849  0.1574E+01  0.4956E+00
    -19.758  0.1592E+01  0.6403E+00
    -19.667  0.1080E+01  0.7384E+00
    -19.576  0.4919E+00  0.7831E+00
    -19.485  0.1502E+00  0.7968E+00
    -19.394  0.3075E-01  0.7996E+00
    -19.304  0.4215E-02  0.8000E+00
    -19.213  0.3867E-03  0.8000E+00
    -19.122  0.2372E-04  0.8000E+00
    -19.031  0.9715E-06  0.8000E+00
    -18.940  0.2656E-07  0.8000E+00
    -18.849  0.4843E-09  0.8000E+00
    -18.758  0.5882E-11  0.8000E+00
    -18.667  0.4838E-13  0.8000E+00
    -18.577  0.0000E+00  0.8000E+00
    -18.486  0.0000E+00  0.8000E+00
    -18.395  0.0000E+00  0.8000E+00
    -18.304  0.0000E+00  0.8000E+00
    -18.213  0.0000E+00  0.8000E+00
    -18.122  0.0000E+00  0.8000E+00
    -18.031  0.0000E+00  0.8000E+00
    -17.941  0.0000E+00  0.8000E+00
    -17.850  0.0000E+00  0.8000E+00
    -17.759  0.0000E+00  0.8000E+00
    -17.668  0.0000E+00  0.8000E+00
    -17.577  0.0000E+00  0.8000E+00
    -17.486  0.0000E+00  0.8000E+00
    -17.395  0.0000E+00  0.8000E+00
    -17.304  0.0000E+00  0.8000E+00
    -17.214  0.0000E+00  0.8000E+00
    -17.123  0.0000E+00  0.8000E+00
    -17.032  0.0000E+00  0.8000E+00
    -16.941  0.0000E+00  0.8000E+00
    -16.850  0.0000E+00  0.8000E+00
    -16.759  0.0000E+00  0.8000E+00
    -16.668  0.0000E+00  0.8000E+00
    -16.578  0.0000E+00  0.8000E+00
    -16.487  0.0000E+00  0.8000E+00
    -16.396  0.0000E+00  0.8000E+00
    -16.305  0.0000E+00  0.8000E+00
    -16.214  0.0000E+00  0.8000E+00
    -16.123  0.0000E+00  0.8000E+00
    -16.032  0.0000E+00  0.8000E+00
    -15.942  0.0000E+00  0.8000E+00
    -15.851  0.0000E+00  0.8000E+00
    -15.760  0.0000E+00  0.8000E+00
    -15.669  0.0000E+00  0.8000E+00
    -15.578  0.0000E+00  0.8000E+00
    -15.487  0.0000E+00  0.8000E+00
    -15.396  0.1222E-15  0.8000E+00
    -15.305  0.1185E-13  0.8000E+00
    -15.215  0.1512E-11  0.8000E+00
    -15.124  0.1273E-09  0.8000E+00
    -15.033  0.7145E-08  0.8000E+00
    -14.942  0.2673E-06  0.8000E+00
    -14.851  0.6676E-05  0.8000E+00
    -14.760  0.1113E-03  0.8000E+00
    -14.669  0.1242E-02  0.8001E+00
    -14.579  0.9264E-02  0.8010E+00
    -14.488  0.4629E-01  0.8052E+00
    -14.397  0.1550E+00  0.8193E+00
    -14.306  0.3482E+00  0.8509E+00
    -14.215  0.5246E+00  0.8986E+00
    -14.124  0.5305E+00  0.9468E+00
    -14.033  0.3600E+00  0.9795E+00
    -13.942  0.1639E+00  0.9944E+00
    -13.852  0.5005E-01  0.9989E+00
    -13.761  0.1024E-01  0.9999E+00
    -13.670  0.1404E-02  0.1000E+01
    -13.579  0.1288E-03  0.1000E+01
    -13.488  0.7897E-05  0.1000E+01
    -13.397  0.3235E-06  0.1000E+01
    -13.306  0.8842E-08  0.1000E+01
    -13.216  0.1612E-09  0.1000E+01
    -13.125  0.1958E-11  0.1000E+01
    -13.034  0.1588E-13  0.1000E+01
    -12.943  0.0000E+00  0.1000E+01
    -12.852  0.0000E+00  0.1000E+01
    -12.761  0.0000E+00  0.1000E+01
    -12.670  0.0000E+00  0.1000E+01
    -12.580  0.0000E+00  0.1000E+01
    -12.489  0.0000E+00  0.1000E+01
    -12.398  0.0000E+00  0.1000E+01
    -12.307  0.0000E+00  0.1000E+01
    -12.216  0.0000E+00  0.1000E+01
    -12.125  0.3666E-15  0.1000E+01
    -12.034  0.8174E-13  0.1000E+01
    -11.943  0.9671E-11  0.1000E+01
    -11.853  0.7619E-09  0.1000E+01
    -11.762  0.3999E-07  0.1000E+01
    -11.671  0.1400E-05  0.1000E+01
    -11.580  0.3271E-04  0.1000E+01
    -11.489  0.5106E-03  0.1000E+01
    -11.398  0.5329E-02  0.1001E+01
    -11.307  0.3722E-01  0.1004E+01
    -11.217  0.1741E+00  0.1020E+01
    -11.126  0.5461E+00  0.1069E+01
    -11.035  0.1148E+01  0.1174E+01
    -10.944  0.1621E+01  0.1321E+01
    -10.853  0.1535E+01  0.1460E+01
    -10.762  0.9753E+00  0.1549E+01
    -10.671  0.4158E+00  0.1587E+01
    -10.580  0.1189E+00  0.1598E+01
    -10.490  0.2278E-01  0.1600E+01
    -10.399  0.2923E-02  0.1600E+01
    -10.308  0.2509E-03  0.1600E+01
    -10.217  0.1440E-04  0.1600E+01
    -10.126  0.5519E-06  0.1600E+01
    -10.035  0.1411E-07  0.1600E+01
     -9.944  0.2407E-09  0.1600E+01
     -9.854  0.2734E-11  0.1600E+01
     -9.763  0.2053E-13  0.1600E+01
     -9.672  0.0000E+00  0.1600E+01
     -9.581  0.0000E+00  0.1600E+01
     -9.490  0.0000E+00  0.1600E+01
     -9.399  0.0000E+00  0.1600E+01
     -9.308  0.0000E+00  0.1600E+01
     -9.218  0.0000E+00  0.1600E+01
     -9.127  0.0000E+00  0.1600E+01
     -9.036  0.0000E+00  0.1600E+01
     -8.945  0.0000E+00  0.1600E+01
     -8.854  0.0000E+00  0.1600E+01
     -8.763  0.0000E+00  0.1600E+01
     -8.672  0.1466E-13  0.1600E+01
     -8.581  0.1911E-11  0.1600E+01
     -8.491  0.1676E-09  0.1600E+01
     -8.400  0.9787E-08  0.1600E+01
     -8.309  0.3811E-06  0.1600E+01
     -8.218  0.9902E-05  0.1600E+01
     -8.127  0.1719E-03  0.1600E+01
     -8.036  0.1994E-02  0.1600E+01
     -7.945  0.1547E-01  0.1602E+01
     -7.855  0.8044E-01  0.1609E+01
     -7.764  0.2802E+00  0.1634E+01
     -7.673  0.6545E+00  0.1694E+01
     -7.582  0.1026E+01  0.1787E+01
     -7.491  0.1079E+01  0.1885E+01
     -7.400  0.7657E+00  0.1955E+01
     -7.309  0.3920E+00  0.1990E+01
     -7.218  0.2673E+00  0.2015E+01
     -7.128  0.5222E+00  0.2062E+01
     -7.037  0.1091E+01  0.2161E+01
     -6.946  0.1596E+01  0.2306E+01
     -6.855  0.1570E+01  0.2449E+01
     -6.764  0.1037E+01  0.2543E+01
     -6.673  0.4593E+00  0.2585E+01
     -6.582  0.1368E+00  0.2597E+01
     -6.492  0.3052E-01  0.2600E+01
     -6.401  0.2907E-01  0.2603E+01
     -6.310  0.1300E+00  0.2614E+01
     -6.219  0.4427E+00  0.2655E+01
     -6.128  0.1014E+01  0.2747E+01
     -6.037  0.1557E+01  0.2888E+01
     -5.946  0.1605E+01  0.3034E+01
     -5.856  0.1111E+01  0.3135E+01
     -5.765  0.5156E+00  0.3182E+01
     -5.674  0.1605E+00  0.3196E+01
     -5.583  0.3349E-01  0.3200E+01
     -5.492  0.4681E-02  0.3200E+01
     -5.401  0.4378E-03  0.3200E+01
     -5.310  0.2737E-04  0.3200E+01
     -5.219  0.1143E-05  0.3200E+01
     -5.129  0.3188E-07  0.3200E+01
     -5.038  0.5926E-09  0.3200E+01
     -4.947  0.7341E-11  0.3200E+01
     -4.856  0.6085E-13  0.3200E+01
     -4.765  0.0000E+00  0.3200E+01
     -4.674  0.0000E+00  0.3200E+01
     -4.583  0.0000E+00  0.3200E+01
     -4.493  0.0000E+00  0.3200E+01
     -4.402  0.0000E+00  0.3200E+01
     -4.311  0.0000E+00  0.3200E+01
     -4.220  0.0000E+00  0.3200E+01
     -4.129  0.0000E+00  0.3200E+01
     -4.038  0.0000E+00  0.3200E+01
     -3.947  0.0000E+00  0.3200E+01
     -3.856  0.0000E+00  0.3200E+01
     -3.766  0.0000E+00  0.3200E+01
     -3.675  0.0000E+00  0.3200E+01
     -3.584  0.0000E+00  0.3200E+01
     -3.493  0.0000E+00  0.3200E+01
     -3.402  0.0000E+00  0.3200E+01
     -3.311  0.0000E+00  0.3200E+01
     -3.220  0.0000E+00  0.3200E+01
     -3.130  0.0000E+00  0.3200E+01
     -3.039  0.0000E+00  0.3200E+01
     -2.948  0.0000E+00  0.3200E+01
     -2.857  0.0000E+00  0.3200E+01
     -2.766  0.0000E+00  0.3200E+01
     -2.675  0.0000E+00  0.3200E+01
     -2.584  0.0000E+00  0.3200E+01
     -2.494  0.0000E+00  0.3200E+01
     -2.403  0.1222E-15  0.3200E+01
     -2.312  0.2407E-13  0.3200E+01
     -2.221  0.2878E-11  0.3200E+01
     -2.130  0.2290E-09  0.3200E+01
     -2.039  0.1214E-07  0.3200E+01
     -1.948  0.4294E-06  0.3200E+01
     -1.857  0.1013E-04  0.3200E+01
     -1.767  0.1598E-03  0.3200E+01
     -1.676  0.1684E-02  0.3200E+01
     -1.585  0.1188E-01  0.3201E+01
     -1.494  0.5614E-01  0.3206E+01
     -1.403  0.1778E+00  0.3223E+01
     -1.312  0.3776E+00  0.3257E+01
     -1.221  0.5382E+00  0.3306E+01
     -1.131  0.5147E+00  0.3352E+01
     -1.040  0.3304E+00  0.3383E+01
     -0.949  0.1423E+00  0.3395E+01
     -0.858  0.4108E-01  0.3399E+01
     -0.767  0.7950E-02  0.3400E+01
     -0.676  0.1030E-02  0.3400E+01
     -0.585  0.8935E-04  0.3400E+01
     -0.494  0.6152E-05  0.3400E+01
     -0.404  0.2396E-04  0.3400E+01
     -0.313  0.3873E-03  0.3400E+01
     -0.222  0.4221E-02  0.3400E+01
     -0.131  0.3078E-01  0.3403E+01
     -0.040  0.1503E+00  0.3417E+01
      0.051  0.4922E+00  0.3462E+01
      0.142  0.1081E+01  0.3560E+01
      0.232  0.1592E+01  0.3704E+01
      0.323  0.1574E+01  0.3847E+01
      0.414  0.1044E+01  0.3942E+01
      0.505  0.4647E+00  0.3985E+01
      0.596  0.1387E+00  0.3997E+01
      0.687  0.2776E-01  0.4000E+01
      0.778  0.3720E-02  0.4000E+01
      0.868  0.3335E-03  0.4000E+01
      0.959  0.1999E-04  0.4000E+01
      1.050  0.8006E-06  0.4000E+01
      1.141  0.2139E-07  0.4000E+01
      1.232  0.3812E-09  0.4000E+01
      1.323  0.4526E-11  0.4000E+01
      1.414  0.3617E-13  0.4000E+01
      1.505  0.0000E+00  0.4000E+01
      1.595  0.0000E+00  0.4000E+01
      1.686  0.0000E+00  0.4000E+01
      1.777  0.0000E+00  0.4000E+01
      1.868  0.0000E+00  0.4000E+01
      1.959  0.0000E+00  0.4000E+01
      2.050  0.0000E+00  0.4000E+01
      2.141  0.0000E+00  0.4000E+01
      2.231  0.0000E+00  0.4000E+01
