    5    5   10    1
  0.1024000E+03  0.8000000E-09  0.8000000E-09  0.8000000E-09  0.5000000E-15
  1.000000000000000E-004
  CAR 
 unknown system                          
   32    1   20
 
  0.0000000E+00  0.0000000E+00  0.0000000E+00  0.1000000E+01
   1      -23.028009
   2      -19.846137
   3      -19.846137
   4      -19.846137
   5      -14.212544
   6      -10.956355
   7      -10.956355
   8      -10.956355
   9       -7.570460
  10       -7.570460
  11       -6.949558
  12       -6.949558
  13       -6.949558
  14       -6.030301
  15       -6.030301
  16       -6.030301
  17       -1.231555
  18        0.229005
  19        0.229005
  20        0.231466
