       N       E                     dE             d eps       ncg     rms          rms(c)
DAV:   1     0.222001141701E+03    0.22200E+03   -0.81423E+03    48   0.731E+02
DAV:   2     0.187674819292E+02   -0.20323E+03   -0.19967E+03    60   0.181E+02
DAV:   3    -0.165914310404E+02   -0.35359E+02   -0.35281E+02    48   0.919E+01
DAV:   4    -0.175976402703E+02   -0.10062E+01   -0.99332E+00    48   0.180E+01
DAV:   5    -0.176414463578E+02   -0.43806E-01   -0.43773E-01    52   0.336E+00    0.448E+00
DAV:   6    -0.173871275671E+02    0.25432E+00   -0.27872E-01    44   0.322E+00    0.255E+00
DAV:   7    -0.173126226978E+02    0.74505E-01   -0.19573E-01    44   0.256E+00    0.498E-01
DAV:   8    -0.173127907497E+02   -0.16805E-03   -0.97414E-03    56   0.641E-01    0.198E-01
DAV:   9    -0.173138830775E+02   -0.10923E-02   -0.15211E-03    40   0.247E-01    0.597E-02
DAV:  10    -0.173148138910E+02   -0.93081E-03   -0.20692E-04    24   0.104E-01    0.197E-02
DAV:  11    -0.173155967360E+02   -0.78284E-03   -0.17036E-04    24   0.679E-02    0.160E-02
DAV:  12    -0.173163046915E+02   -0.70796E-03   -0.78882E-05    24   0.685E-02    0.878E-03
DAV:  13    -0.173163657702E+02   -0.61079E-04   -0.24635E-05    24   0.354E-02
   1 F= -.17316366E+02 E0= -.17316366E+02  d E =-.173164E+02
       N       E                     dE             d eps       ncg     rms          rms(c)
DAV:   1    -0.173170689491E+02   -0.76426E-03   -0.58593E-01    40   0.427E+00    0.134E-01
DAV:   2    -0.173190420382E+02   -0.19731E-02   -0.23317E-02    48   0.103E+00    0.105E-01
DAV:   3    -0.173189387316E+02    0.10331E-03   -0.53914E-04    40   0.166E-01    0.632E-02
DAV:   4    -0.173189132226E+02    0.25509E-04   -0.17191E-04    24   0.889E-02
   2 F= -.17318913E+02 E0= -.17318913E+02  d E =-.254745E-02
       N       E                     dE             d eps       ncg     rms          rms(c)
DAV:   1    -0.173190306501E+02   -0.91918E-04   -0.13742E-02    48   0.649E-01    0.186E-02
DAV:   2    -0.173190737889E+02   -0.43139E-04   -0.57448E-04    44   0.163E-01
   3 F= -.17319074E+02 E0= -.17319074E+02  d E =-.270802E-02
