<?xml version="1.0" encoding="ISO-8859-1"?>
<modeling>
 <generator>
  <i name="program" type="string">vasp </i>
  <i name="version" type="string">5.2.12  </i>
  <i name="subversion" type="string">11Nov11 complex                                                      parallel </i>
  <i name="platform" type="string">LinuxIFC </i>
  <i name="date" type="string">2012 10 31 </i>
  <i name="time" type="string">21:35:03 </i>
 </generator>
 <incar>
  <i type="string" name="PREC">normal</i>
  <i type="int" name="IBRION">     2</i>
  <i type="int" name="NSW">    10</i>
  <i name="ENCUT">    300.00000000</i>
  <i type="int" name="ISMEAR">     0</i>
 </incar>
 <kpoints>
  <generation param="Monkhorst-Pack">
   <v type="int" name="divisions">       1        1        1 </v>
   <v name="usershift">      0.00000000       0.00000000       0.00000000 </v>
   <v name="genvec1">      1.00000000       0.00000000       0.00000000 </v>
   <v name="genvec2">      0.00000000       1.00000000       0.00000000 </v>
   <v name="genvec3">      0.00000000       0.00000000       1.00000000 </v>
   <v name="shift">      0.00000000       0.00000000       0.00000000 </v>
  </generation>
  <varray name="kpointlist" >
   <v>       0.00000000       0.00000000       0.00000000 </v>
  </varray>
  <varray name="weights" >
   <v>       1.00000000 </v>
  </varray>
 </kpoints>
 <parameters>
  <separator name="general" >
   <i type="string" name="SYSTEM">unknown system</i>
   <i type="logical" name="LCOMPAT"> F  </i>
  </separator>
  <separator name="electronic" >
   <i type="string" name="PREC">normal</i>
   <i name="ENMAX">    300.00000000</i>
   <i name="ENAUG">    644.87300000</i>
   <i name="EDIFF">      0.00010000</i>
   <i type="int" name="IALGO">    38</i>
   <i type="int" name="IWAVPR">    11</i>
   <i type="int" name="NBANDS">    20</i>
   <i name="NELECT">     32.00000000</i>
   <i type="int" name="TURBO">     0</i>
   <i type="int" name="IRESTART">     0</i>
   <i type="int" name="NREBOOT">     0</i>
   <i type="int" name="NMIN">     0</i>
   <i name="EREF">      0.00000000</i>
   <separator name="electronic smearing" >
    <i type="int" name="ISMEAR">     0</i>
    <i name="SIGMA">      0.20000000</i>
    <i name="KSPACING">      0.50000000</i>
    <i type="logical" name="KGAMMA"> T  </i>
   </separator>
   <separator name="electronic projectors" >
    <i type="logical" name="LREAL"> F  </i>
    <v name="ROPT">      0.00000000      0.00000000</v>
    <i type="int" name="LMAXPAW">  -100</i>
    <i type="int" name="LMAXMIX">     2</i>
    <i type="logical" name="NLSPLINE"> F  </i>
   </separator>
   <separator name="electronic startup" >
    <i type="int" name="ISTART">     0</i>
    <i type="int" name="ICHARG">     2</i>
    <i type="int" name="INIWAV">     1</i>
   </separator>
   <separator name="electronic spin" >
    <i type="int" name="ISPIN">     1</i>
    <i type="logical" name="LNONCOLLINEAR"> F  </i>
    <v name="MAGMOM">      1.00000000      1.00000000      1.00000000      1.00000000      1.00000000</v>
    <i name="NUPDOWN">     -1.00000000</i>
    <i type="logical" name="LSORBIT"> F  </i>
    <v name="SAXIS">      0.00000000      0.00000000      1.00000000</v>
    <i type="logical" name="LSPIRAL"> F  </i>
    <v name="QSPIRAL">      0.00000000      0.00000000      0.00000000</v>
    <i type="logical" name="LZEROZ"> F  </i>
   </separator>
   <separator name="electronic exchange-correlation" >
    <i type="logical" name="LASPH"> F  </i>
    <i type="logical" name="LMETAGGA"> F  </i>
   </separator>
   <separator name="electronic convergence" >
    <i type="int" name="NELM">    60</i>
    <i type="int" name="NELMDL">    -5</i>
    <i type="int" name="NELMIN">     2</i>
    <i name="ENINI">    300.00000000</i>
    <separator name="electronic convergence detail" >
     <i type="logical" name="LDIAG"> T  </i>
     <i type="logical" name="LSUBROT"> T  </i>
     <i name="WEIMIN">      0.00100000</i>
     <i name="EBREAK">      0.00000125</i>
     <i name="DEPER">      0.30000000</i>
     <i type="int" name="NRMM">     4</i>
     <i name="TIME">      0.40000000</i>
    </separator>
   </separator>
   <separator name="electronic mixer" >
    <i name="AMIX">      0.40000000</i>
    <i name="BMIX">      1.00000000</i>
    <i name="AMIN">      0.10000000</i>
    <i name="AMIX_MAG">      1.60000000</i>
    <i name="BMIX_MAG">      1.00000000</i>
    <separator name="electronic mixer details" >
     <i type="int" name="IMIX">     4</i>
     <i type="int" name="MAXMIX">   -45</i>
     <i name="WC">    100.00000000</i>
     <i type="int" name="INIMIX">     1</i>
     <i type="int" name="MIXPRE">     1</i>
     <i type="int" name="MREMOVE">     5</i>
    </separator>
   </separator>
   <separator name="electronic dipolcorrection" >
    <i type="logical" name="LDIPOL"> F  </i>
    <i type="logical" name="LMONO"> F  </i>
    <i type="int" name="IDIPOL">     0</i>
    <i name="EPSILON">      1.00000000</i>
    <v name="DIPOL">   -100.00000000   -100.00000000   -100.00000000</v>
    <i name="EFIELD">      0.00000000</i>
   </separator>
  </separator>
  <separator name="grids" >
   <i type="int" name="NGX">    36</i>
   <i type="int" name="NGY">    36</i>
   <i type="int" name="NGZ">    36</i>
   <i type="int" name="NGXF">    72</i>
   <i type="int" name="NGYF">    72</i>
   <i type="int" name="NGZF">    72</i>
   <i type="logical" name="ADDGRID"> F  </i>
  </separator>
  <separator name="ionic" >
   <i type="int" name="NSW">    10</i>
   <i type="int" name="IBRION">     2</i>
   <i type="int" name="ISIF">     2</i>
   <i name="PSTRESS">      0.00000000</i>
   <i name="EDIFFG">      0.00100000</i>
   <i type="int" name="NFREE">     1</i>
   <i name="POTIM">      0.50000000</i>
   <i name="SMASS">     -3.00000000</i>
   <i name="SCALEE">      1.00000000</i>
  </separator>
  <separator name="ionic md" >
   <i name="TEBEG">      0.00010000</i>
   <i name="TEEND">      0.00010000</i>
   <i type="int" name="NBLOCK">     1</i>
   <i type="int" name="KBLOCK">    10</i>
   <i type="int" name="NPACO">   256</i>
   <i name="APACO">     16.00000000</i>
  </separator>
  <separator name="symmetry" >
   <i type="int" name="ISYM">     2</i>
   <i name="SYMPREC">      0.00001000</i>
  </separator>
  <separator name="dos" >
   <i type="logical" name="LORBIT"> F  </i>
   <v name="RWIGS">     -1.00000000     -1.00000000</v>
   <i type="int" name="NEDOS">   301</i>
   <i name="EMIN">     10.00000000</i>
   <i name="EMAX">    -10.00000000</i>
   <i name="EFERMI">      0.00000000</i>
  </separator>
  <separator name="writing" >
   <i type="int" name="NWRITE">     2</i>
   <i type="logical" name="LWAVE"> T  </i>
   <i type="logical" name="LCHARG"> T  </i>
   <i type="logical" name="LPARD"> F  </i>
   <i type="logical" name="LVTOT"> F  </i>
   <i type="logical" name="LVHAR"> F  </i>
   <i type="logical" name="LELF"> F  </i>
   <i type="logical" name="LOPTICS"> F  </i>
   <v name="STM">      0.00000000      0.00000000      0.00000000      0.00000000      0.00000000      0.00000000      0.00000000</v>
  </separator>
  <separator name="performance" >
   <i type="int" name="NPAR">     1</i>
   <i type="int" name="NSIM">     4</i>
   <i type="int" name="NBLK">    -1</i>
   <i type="logical" name="LPLANE"> T  </i>
   <i type="logical" name="LSCALAPACK"> F  </i>
   <i type="logical" name="LSCAAWARE"> F  </i>
   <i type="logical" name="LSCALU"> F  </i>
   <i type="logical" name="LASYNC"> F  </i>
   <i type="logical" name="LORBITALREAL"> F  </i>
  </separator>
  <separator name="miscellaneous" >
   <i type="int" name="IDIOT">     3</i>
   <i type="logical" name="LMUSIC"> F  </i>
   <v name="POMASS">     12.01100000     35.45300000</v>
   <v name="DARWINR">      0.00000000      0.00000000</v>
   <v name="DARWINV">      1.00000000      1.00000000</v>
   <i type="logical" name="LCORR"> T  </i>
  </separator>
  <i type="logical" name="GGA_COMPAT"> T  </i>
  <i type="logical" name="LBERRY"> F  </i>
  <i type="int" name="ICORELEVEL">     0</i>
  <i type="logical" name="LDAU"> F  </i>
  <i type="int" name="I_CONSTRAINED_M">     0</i>
  <separator name="electronic exchange-correlation" >
   <i type="string" name="GGA">--</i>
   <i type="int" name="VOSKOWN">     0</i>
   <i type="logical" name="LHFCALC"> F  </i>
   <i type="string" name="PRECFOCK"></i>
   <i type="logical" name="LHFONE"> F  </i>
   <i type="logical" name="LRHFCALC"> F  </i>
   <i type="logical" name="LTHOMAS"> F  </i>
   <i type="logical" name="LMODELHF"> F  </i>
   <i name="ENCUT4O">     -1.00000000</i>
   <i type="int" name="EXXOEP">     0</i>
   <i type="int" name="FOURORBIT">     0</i>
   <i name="AEXX">      0.00000000</i>
   <i name="HFALPHA">      0.00000000</i>
   <i name="ALDAX">      1.00000000</i>
   <i name="AGGAX">      1.00000000</i>
   <i name="ALDAC">      1.00000000</i>
   <i name="AGGAC">      1.00000000</i>
   <i type="int" name="NKREDX">     1</i>
   <i type="int" name="NKREDY">     1</i>
   <i type="int" name="NKREDZ">     1</i>
   <i type="logical" name="SHIFTRED"> F  </i>
   <i type="logical" name="ODDONLY"> F  </i>
   <i type="logical" name="EVENONLY"> F  </i>
   <i type="int" name="LMAXFOCK">     0</i>
   <i type="int" name="NMAXFOCKAE">     0</i>
   <i type="logical" name="LFOCKAEDFT"> F  </i>
   <i name="HFSCREEN">      0.00000000</i>
   <i name="HFSCREENC">      0.00000000</i>
  </separator>
  <separator name="vdW DFT" >
   <i type="logical" name="LUSE_VDW"> F  </i>
   <i name="Zab_VDW">     -0.84910000</i>
   <i name="PARAM1">      0.12340000</i>
   <i name="PARAM2">      1.00000000</i>
   <i name="PARAM3">      0.00000000</i>
  </separator>
  <separator name="model GW" >
   <i type="int" name="MODEL_GW">     0</i>
   <i name="MODEL_EPS0">     61.44000000</i>
   <i name="MODEL_ALPHA">      1.00000000</i>
  </separator>
  <separator name="linear response parameters" >
   <i type="logical" name="LEPSILON"> F  </i>
   <i type="logical" name="LRPA"> F  </i>
   <i type="logical" name="LNABLA"> F  </i>
   <i type="logical" name="LVEL"> F  </i>
   <i type="int" name="KINTER">     0</i>
   <i name="CSHIFT">      0.10000000</i>
   <i name="OMEGAMAX">     -1.00000000</i>
  </separator>
  <separator name="orbital magnetization" >
   <i type="logical" name="NUCIND"> F  </i>
   <v name="MAGPOS">      0.00000000      0.00000000      0.00000000</v>
   <i type="logical" name="LNICSALL"> T  </i>
   <i type="logical" name="ORBITALMAG"> F  </i>
   <i type="logical" name="LMAGBLOCH"> F  </i>
   <i type="logical" name="LCHIMAG"> F  </i>
   <i type="logical" name="LGAUGE"> T  </i>
   <i type="int" name="MAGATOM">     0</i>
   <v name="MAGDIPOL">      0.00000000      0.00000000      0.00000000</v>
   <v name="AVECCONST">      0.00000000      0.00000000      0.00000000</v>
  </separator>
  <separator name="response functions" >
   <i type="logical" name="LADDER"> F  </i>
   <i type="logical" name="LHARTREE"> T  </i>
   <i type="int" name="IBSE">     0</i>
   <i type="logical" name="LTCTE"> F  </i>
   <i type="logical" name="LTETE"> F  </i>
   <i type="logical" name="LFXCEPS"> F  </i>
   <i type="logical" name="L2ORDER"> F  </i>
   <i type="logical" name="LUSEW"> F  </i>
   <i name="ENCUTGW">     -2.00000000</i>
   <i name="ENCUTGWSOFT">     -2.00000000</i>
   <i name="ENCUTLF">     -1.00000000</i>
   <i type="int" name="LMAXMP2">    -1</i>
   <i name="SCISSOR">      0.00000000</i>
   <i type="int" name="NOMEGA">     0</i>
   <i type="int" name="NOMEGAR">     0</i>
   <i type="int" name="NBANDSGW">    -1</i>
   <i type="int" name="NBANDSO">    -1</i>
   <i type="int" name="NBANDSV">    -1</i>
   <i name="OPTEMAX">      0.00000000</i>
   <i type="int" name="NELM">     1</i>
   <i type="int" name="DIM">     3</i>
   <i type="int" name="ANTIRES">     0</i>
   <i name="OMEGAMAX">    -30.00000000</i>
   <i name="OMEGATL">   -200.00000000</i>
   <i type="int" name="OMEGAGRID">     0</i>
   <i name="CSHIFT">     -0.10000000</i>
   <i type="logical" name="SELFENERGY"> F  </i>
   <i type="logical" name="LSPECTRAL"> F  </i>
   <i type="logical" name="ODDONLYGW"> F  </i>
   <i type="logical" name="EVENONLYGW"> F  </i>
   <i type="int" name="NKREDLFX">     1</i>
   <i type="int" name="NKREDLFY">     1</i>
   <i type="int" name="NKREDLFZ">     1</i>
   <i type="int" name="MAXMEM">  1800</i>
   <i type="int" name="TELESCOPE">     0</i>
  </separator>
 </parameters>
 <atominfo>
  <atoms>       5 </atoms>
  <types>       2 </types>
  <array name="atoms" >
   <dimension dim="1">ion</dimension>
   <field type="string">element</field>
   <field type="int">atomtype</field>
   <set>
    <rc><c>C </c><c>   1</c></rc>
    <rc><c>Cl</c><c>   2</c></rc>
    <rc><c>Cl</c><c>   2</c></rc>
    <rc><c>Cl</c><c>   2</c></rc>
    <rc><c>Cl</c><c>   2</c></rc>
   </set>
  </array>
  <array name="atomtypes" >
   <dimension dim="1">type</dimension>
   <field type="int">atomspertype</field>
   <field type="string">element</field>
   <field>mass</field>
   <field>valence</field>
   <field type="string">pseudopotential</field>
   <set>
    <rc><c>   1</c><c>C </c><c>     12.01100000</c><c>      4.00000000</c><c> PAW_PBE C 08Apr2002                    </c></rc>
    <rc><c>   4</c><c>Cl</c><c>     35.45300000</c><c>      7.00000000</c><c>  PAW_PBE Cl 17Jan2003                  </c></rc>
   </set>
  </array>
 </atominfo>
 <structure name="initialpos" >
  <crystal>
   <varray name="basis" >
    <v>       8.00000000       0.00000000       0.00000000 </v>
    <v>       0.00000000       8.00000000       0.00000000 </v>
    <v>       0.00000000       0.00000000       8.00000000 </v>
   </varray>
   <i name="volume">    512.00000000 </i>
   <varray name="rec_basis" >
    <v>       0.12500000       0.00000000       0.00000000 </v>
    <v>       0.00000000       0.12500000       0.00000000 </v>
    <v>       0.00000000       0.00000000       0.12500000 </v>
   </varray>
  </crystal>
  <varray name="positions" >
   <v>       0.00000000       0.00000000       0.00000000 </v>
   <v>       0.12766750       0.12766750       0.12766750 </v>
   <v>       0.87233250       0.87233250       0.12766750 </v>
   <v>       0.87233250       0.12766750       0.87233250 </v>
   <v>       0.12766750       0.87233250       0.87233250 </v>
  </varray>
 </structure>
 <calculation>
  <scstep>
   <time name="dav">    0.56    0.56</time>
   <time name="total">    1.14    1.14</time>
   <energy>
    <i name="alphaZ">      8.81598031 </i>
    <i name="ewald">    -81.24181609 </i>
    <i name="hartreedc">  -1444.11011374 </i>
    <i name="XCdc">     93.80990135 </i>
    <i name="pawpsdc">    831.83787413 </i>
    <i name="pawaedc">   -833.44360687 </i>
    <i name="eentropy">     -0.00216537 </i>
    <i name="bandstr">   -139.40860565 </i>
    <i name="atom">   1785.74369364 </i>
    <i name="e_fr_energy">    222.00114170 </i>
    <i name="e_wo_entrp">    222.00330707 </i>
    <i name="e_0_energy">    222.00222439 </i>
   </energy>
  </scstep>
  <scstep>
   <time name="dav">    0.67    0.67</time>
   <time name="total">    0.67    0.67</time>
   <energy>
    <i name="e_fr_energy">     18.76748193 </i>
    <i name="e_wo_entrp">     18.76748193 </i>
    <i name="e_0_energy">     18.76748193 </i>
   </energy>
  </scstep>
  <scstep>
   <time name="dav">    0.72    0.72</time>
   <time name="total">    0.73    0.74</time>
   <energy>
    <i name="e_fr_energy">    -16.59143104 </i>
    <i name="e_wo_entrp">    -16.59143104 </i>
    <i name="e_0_energy">    -16.59143104 </i>
   </energy>
  </scstep>
  <scstep>
   <time name="dav">    0.72    0.72</time>
   <time name="total">    0.72    0.74</time>
   <energy>
    <i name="e_fr_energy">    -17.59764027 </i>
    <i name="e_wo_entrp">    -17.59764027 </i>
    <i name="e_0_energy">    -17.59764027 </i>
   </energy>
  </scstep>
  <scstep>
   <time name="dav">    0.77    0.77</time>
   <time name="total">    0.91    0.98</time>
   <energy>
    <i name="e_fr_energy">    -17.64144636 </i>
    <i name="e_wo_entrp">    -17.64144636 </i>
    <i name="e_0_energy">    -17.64144636 </i>
   </energy>
  </scstep>
  <scstep>
   <time name="dav">    0.54    0.54</time>
   <time name="total">    1.23    1.24</time>
   <energy>
    <i name="e_fr_energy">    -17.38712757 </i>
    <i name="e_wo_entrp">    -17.38712757 </i>
    <i name="e_0_energy">    -17.38712757 </i>
   </energy>
  </scstep>
  <scstep>
   <time name="dav">    0.54    0.54</time>
   <time name="total">    1.22    1.24</time>
   <energy>
    <i name="e_fr_energy">    -17.31262270 </i>
    <i name="e_wo_entrp">    -17.31262270 </i>
    <i name="e_0_energy">    -17.31262270 </i>
   </energy>
  </scstep>
  <scstep>
   <time name="dav">    0.63    0.63</time>
   <time name="total">    1.31    1.32</time>
   <energy>
    <i name="e_fr_energy">    -17.31279075 </i>
    <i name="e_wo_entrp">    -17.31279075 </i>
    <i name="e_0_energy">    -17.31279075 </i>
   </energy>
  </scstep>
  <scstep>
   <time name="dav">    0.49    0.49</time>
   <time name="total">    1.24    1.25</time>
   <energy>
    <i name="e_fr_energy">    -17.31388308 </i>
    <i name="e_wo_entrp">    -17.31388308 </i>
    <i name="e_0_energy">    -17.31388308 </i>
   </energy>
  </scstep>
  <scstep>
   <time name="dav">    0.36    0.36</time>
   <time name="total">    1.13    1.20</time>
   <energy>
    <i name="e_fr_energy">    -17.31481389 </i>
    <i name="e_wo_entrp">    -17.31481389 </i>
    <i name="e_0_energy">    -17.31481389 </i>
   </energy>
  </scstep>
  <scstep>
   <time name="dav">    0.36    0.36</time>
   <time name="total">    1.05    1.07</time>
   <energy>
    <i name="e_fr_energy">    -17.31559674 </i>
    <i name="e_wo_entrp">    -17.31559674 </i>
    <i name="e_0_energy">    -17.31559674 </i>
   </energy>
  </scstep>
  <scstep>
   <time name="dav">    0.36    0.36</time>
   <time name="total">    1.05    1.06</time>
   <energy>
    <i name="e_fr_energy">    -17.31630469 </i>
    <i name="e_wo_entrp">    -17.31630469 </i>
    <i name="e_0_energy">    -17.31630469 </i>
   </energy>
  </scstep>
  <scstep>
   <time name="dav">    0.36    0.36</time>
   <time name="total">    0.93    0.94</time>
   <energy>
    <i name="alphaZ">      8.81598031 </i>
    <i name="ewald">    -81.24181609 </i>
    <i name="hartreedc">  -1455.29965306 </i>
    <i name="XCdc">     94.72414166 </i>
    <i name="pawpsdc">    907.18225230 </i>
    <i name="pawaedc">   -909.27325368 </i>
    <i name="eentropy">      0.00000000 </i>
    <i name="bandstr">   -367.96771085 </i>
    <i name="atom">   1785.74369364 </i>
    <i name="e_fr_energy">    -17.31636577 </i>
    <i name="e_wo_entrp">    -17.31636577 </i>
    <i name="e_0_energy">    -17.31636577 </i>
   </energy>
  </scstep>
  <parameters_embedded>
   <separator name="dft+d2" >
    <i type="logical" name="LVDW"> F  </i>
   </separator>
  </parameters_embedded>
  <structure>
   <crystal>
    <varray name="basis" >
     <v>       8.00000000       0.00000000       0.00000000 </v>
     <v>       0.00000000       8.00000000       0.00000000 </v>
     <v>       0.00000000       0.00000000       8.00000000 </v>
    </varray>
    <i name="volume">    512.00000000 </i>
    <varray name="rec_basis" >
     <v>       0.12500000       0.00000000       0.00000000 </v>
     <v>       0.00000000       0.12500000       0.00000000 </v>
     <v>       0.00000000       0.00000000       0.12500000 </v>
    </varray>
   </crystal>
   <varray name="positions" >
    <v>       0.00000000       0.00000000       0.00000000 </v>
    <v>       0.12766750       0.12766750       0.12766750 </v>
    <v>       0.87233250       0.87233250       0.12766750 </v>
    <v>       0.87233250       0.12766750       0.87233250 </v>
    <v>       0.12766750       0.87233250       0.87233250 </v>
   </varray>
  </structure>
  <varray name="forces" >
   <v>       0.00000000       0.00000000       0.00000000 </v>
   <v>       0.10659217       0.10659217       0.10659217 </v>
   <v>      -0.10659217      -0.10659217       0.10659217 </v>
   <v>      -0.10659217       0.10659217      -0.10659217 </v>
   <v>       0.10659217      -0.10659217      -0.10659217 </v>
  </varray>
  <varray name="stress" >
   <v>      -2.44572715       0.00000000       0.00000000 </v>
   <v>       0.00000000      -2.44572715       0.00000000 </v>
   <v>       0.00000000       0.00000000      -2.44572715 </v>
  </varray>
  <energy>
   <i name="e_fr_energy">    -17.31636577 </i>
   <i name="e_wo_entrp">    -17.31636577 </i>
   <i name="e_0_energy">      0.00000000 </i>
  </energy>
  <time name="totalsc">   16.22   16.73</time>
 </calculation>
 <calculation>
  <scstep>
   <time name="dav">    0.64    0.64</time>
   <time name="total">    1.50    1.50</time>
   <energy>
    <i name="alphaZ">      8.81598031 </i>
    <i name="ewald">    -91.66672951 </i>
    <i name="hartreedc">  -1445.84174098 </i>
    <i name="XCdc">     94.60969147 </i>
    <i name="pawpsdc">    907.16372583 </i>
    <i name="pawaedc">   -909.25425999 </i>
    <i name="eentropy">      0.00000000 </i>
    <i name="bandstr">   -366.88742972 </i>
    <i name="atom">   1785.74369364 </i>
    <i name="e_fr_energy">    -17.31706895 </i>
    <i name="e_wo_entrp">    -17.31706895 </i>
    <i name="e_0_energy">    -17.31706895 </i>
   </energy>
  </scstep>
  <scstep>
   <time name="dav">    0.74    0.74</time>
   <time name="total">    1.59    1.59</time>
   <energy>
    <i name="e_fr_energy">    -17.31904204 </i>
    <i name="e_wo_entrp">    -17.31904204 </i>
    <i name="e_0_energy">    -17.31904204 </i>
   </energy>
  </scstep>
  <scstep>
   <time name="dav">    0.65    0.65</time>
   <time name="total">    1.49    1.51</time>
   <energy>
    <i name="e_fr_energy">    -17.31893873 </i>
    <i name="e_wo_entrp">    -17.31893873 </i>
    <i name="e_0_energy">    -17.31893873 </i>
   </energy>
  </scstep>
  <scstep>
   <time name="dav">    0.46    0.46</time>
   <time name="total">    1.16    1.21</time>
   <energy>
    <i name="alphaZ">      8.81598031 </i>
    <i name="ewald">    -91.66672951 </i>
    <i name="hartreedc">  -1445.40584322 </i>
    <i name="XCdc">     94.60078710 </i>
    <i name="pawpsdc">    905.07130380 </i>
    <i name="pawaedc">   -907.14317162 </i>
    <i name="eentropy">      0.00000000 </i>
    <i name="bandstr">   -367.33493373 </i>
    <i name="atom">   1785.74369364 </i>
    <i name="e_fr_energy">    -17.31891322 </i>
    <i name="e_wo_entrp">    -17.31891322 </i>
    <i name="e_0_energy">    -17.31891322 </i>
   </energy>
  </scstep>
  <structure>
   <crystal>
    <varray name="basis" >
     <v>       8.00000000       0.00000000       0.00000000 </v>
     <v>       0.00000000       8.00000000       0.00000000 </v>
     <v>       0.00000000       0.00000000       8.00000000 </v>
    </varray>
    <i name="volume">    512.00000000 </i>
    <varray name="rec_basis" >
     <v>       0.12500000       0.00000000       0.00000000 </v>
     <v>       0.00000000       0.12500000       0.00000000 </v>
     <v>       0.00000000       0.00000000       0.12500000 </v>
    </varray>
   </crystal>
   <varray name="positions" >
    <v>       0.00000000       0.00000000       0.00000000 </v>
    <v>       0.12831029       0.12831029       0.12831029 </v>
    <v>       0.87168971       0.87168971       0.12831029 </v>
    <v>       0.87168971       0.12831029       0.87168971 </v>
    <v>       0.12831029       0.87168971       0.87168971 </v>
   </varray>
  </structure>
  <varray name="forces" >
   <v>       0.00000000       0.00000000       0.00000000 </v>
   <v>      -0.01788575      -0.01788575      -0.01788575 </v>
   <v>       0.01788575       0.01788575      -0.01788575 </v>
   <v>       0.01788575      -0.01788575       0.01788575 </v>
   <v>      -0.01788575       0.01788575       0.01788575 </v>
  </varray>
  <varray name="stress" >
   <v>      -4.24572973       0.00000000       0.00000000 </v>
   <v>       0.00000000      -4.24572973       0.00000000 </v>
   <v>       0.00000000       0.00000000      -4.24572973 </v>
  </varray>
  <energy>
   <i name="e_fr_energy">    -17.31891322 </i>
   <i name="e_wo_entrp">    -17.31891322 </i>
   <i name="e_0_energy">      0.00000000 </i>
  </energy>
  <time name="totalsc">    8.10    8.27</time>
 </calculation>
 <calculation>
  <scstep>
   <time name="dav">    0.67    0.67</time>
   <time name="total">    1.45    1.46</time>
   <energy>
    <i name="alphaZ">      8.81598031 </i>
    <i name="ewald">    -90.17649849 </i>
    <i name="hartreedc">  -1446.72314016 </i>
    <i name="XCdc">     94.61608398 </i>
    <i name="pawpsdc">    904.67705553 </i>
    <i name="pawaedc">   -906.74478315 </i>
    <i name="eentropy">      0.00000000 </i>
    <i name="bandstr">   -367.52742231 </i>
    <i name="atom">   1785.74369364 </i>
    <i name="e_fr_energy">    -17.31903065 </i>
    <i name="e_wo_entrp">    -17.31903065 </i>
    <i name="e_0_energy">    -17.31903065 </i>
   </energy>
  </scstep>
  <scstep>
   <time name="dav">    0.61    0.61</time>
   <time name="total">    1.25    1.25</time>
   <energy>
    <i name="alphaZ">      8.81598031 </i>
    <i name="ewald">    -90.17649849 </i>
    <i name="hartreedc">  -1446.79382503 </i>
    <i name="XCdc">     94.61729941 </i>
    <i name="pawpsdc">    904.82420156 </i>
    <i name="pawaedc">   -906.89287321 </i>
    <i name="eentropy">      0.00000000 </i>
    <i name="bandstr">   -367.45705199 </i>
    <i name="atom">   1785.74369364 </i>
    <i name="e_fr_energy">    -17.31907379 </i>
    <i name="e_wo_entrp">    -17.31907379 </i>
    <i name="e_0_energy">    -17.31907379 </i>
   </energy>
  </scstep>
  <structure>
   <crystal>
    <varray name="basis" >
     <v>       8.00000000       0.00000000       0.00000000 </v>
     <v>       0.00000000       8.00000000       0.00000000 </v>
     <v>       0.00000000       0.00000000       8.00000000 </v>
    </varray>
    <i name="volume">    512.00000000 </i>
    <varray name="rec_basis" >
     <v>       0.12500000       0.00000000       0.00000000 </v>
     <v>       0.00000000       0.12500000       0.00000000 </v>
     <v>       0.00000000       0.00000000       0.12500000 </v>
    </varray>
   </crystal>
   <varray name="positions" >
    <v>       0.00000000       0.00000000       0.00000000 </v>
    <v>       0.12821793       0.12821793       0.12821793 </v>
    <v>       0.87178207       0.87178207       0.12821793 </v>
    <v>       0.87178207       0.12821793       0.87178207 </v>
    <v>       0.12821793       0.87178207       0.87178207 </v>
   </varray>
  </structure>
  <varray name="forces" >
   <v>       0.00000000       0.00000000       0.00000000 </v>
   <v>      -0.00743435      -0.00743435      -0.00743435 </v>
   <v>       0.00743435       0.00743435      -0.00743435 </v>
   <v>       0.00743435      -0.00743435       0.00743435 </v>
   <v>      -0.00743435       0.00743435       0.00743435 </v>
  </varray>
  <varray name="stress" >
   <v>      -3.85691325       0.00000000       0.00000000 </v>
   <v>       0.00000000      -3.85691325       0.00000000 </v>
   <v>       0.00000000       0.00000000      -3.85691325 </v>
  </varray>
  <energy>
   <i name="e_fr_energy">    -17.31907379 </i>
   <i name="e_wo_entrp">    -17.31907379 </i>
   <i name="e_0_energy">      0.00000000 </i>
  </energy>
  <time name="totalsc">    4.97    5.04</time>
  <eigenvalues>
   <array>
    <dimension dim="1">band</dimension>
    <dimension dim="2">kpoint</dimension>
    <dimension dim="3">spin</dimension>
    <field>eigene</field>
    <field>occ</field>
    <set>
     <set comment="spin 1">
      <set comment="kpoint 1">
       <r>  -23.0280    1.0000 </r>
       <r>  -19.8461    1.0000 </r>
       <r>  -19.8461    1.0000 </r>
       <r>  -19.8461    1.0000 </r>
       <r>  -14.2125    1.0000 </r>
       <r>  -10.9564    1.0000 </r>
       <r>  -10.9564    1.0000 </r>
       <r>  -10.9564    1.0000 </r>
       <r>   -7.5705    1.0000 </r>
       <r>   -7.5705    1.0000 </r>
       <r>   -6.9496    1.0000 </r>
       <r>   -6.9496    1.0000 </r>
       <r>   -6.9496    1.0000 </r>
       <r>   -6.0303    1.0000 </r>
       <r>   -6.0303    1.0000 </r>
       <r>   -6.0303    1.0000 </r>
       <r>   -1.2316    0.0000 </r>
       <r>    0.2290    0.0000 </r>
       <r>    0.2290    0.0000 </r>
       <r>    0.2315    0.0000 </r>
      </set>
     </set>
    </set>
   </array>
  </eigenvalues>
  <separator name="orbital magnetization" >
   <v name="MAGDIPOLOUT">      0.00000000      0.00000000      0.00000000</v>
  </separator>
  <dos>
   <i name="efermi">     -5.03737236 </i>
   <total>
    <array>
     <dimension dim="1">gridpoints</dimension>
     <dimension dim="2">spin</dimension>
     <field>energy</field>
     <field>total</field>
     <field>integrated</field>
     <set>
      <set comment="spin 1">
       <r>   -25.0280     0.0000     0.0000 </r>
       <r>   -24.9371     0.0000     0.0000 </r>
       <r>   -24.8463     0.0000     0.0000 </r>
       <r>   -24.7554     0.0000     0.0000 </r>
       <r>   -24.6645     0.0000     0.0000 </r>
       <r>   -24.5737     0.0000     0.0000 </r>
       <r>   -24.4828     0.0000     0.0000 </r>
       <r>   -24.3920     0.0000     0.0000 </r>
       <r>   -24.3011     0.0000     0.0000 </r>
       <r>   -24.2102     0.0000     0.0000 </r>
       <r>   -24.1194     0.0000     0.0000 </r>
       <r>   -24.0285     0.0000     0.0000 </r>
       <r>   -23.9376     0.0000     0.0000 </r>
       <r>   -23.8468     0.0000     0.0000 </r>
       <r>   -23.7559     0.0000     0.0000 </r>
       <r>   -23.6650     0.0001     0.0000 </r>
       <r>   -23.5742     0.0012     0.0001 </r>
       <r>   -23.4833     0.0129     0.0013 </r>
       <r>   -23.3924     0.0956     0.0100 </r>
       <r>   -23.3016     0.4743     0.0531 </r>
       <r>   -23.2107     1.5774     0.1964 </r>
       <r>   -23.1198     3.5184     0.5161 </r>
       <r>   -23.0290     5.2653     0.9945 </r>
       <r>   -22.9381     5.2878     1.4750 </r>
       <r>   -22.8473     3.5637     1.7988 </r>
       <r>   -22.7564     1.6114     1.9452 </r>
       <r>   -22.6655     0.4887     1.9896 </r>
       <r>   -22.5747     0.0993     1.9987 </r>
       <r>   -22.4838     0.0135     1.9999 </r>
       <r>   -22.3929     0.0012     2.0000 </r>
       <r>   -22.3021     0.0001     2.0000 </r>
       <r>   -22.2112     0.0000     2.0000 </r>
       <r>   -22.1203     0.0000     2.0000 </r>
       <r>   -22.0295     0.0000     2.0000 </r>
       <r>   -21.9386     0.0000     2.0000 </r>
       <r>   -21.8477     0.0000     2.0000 </r>
       <r>   -21.7569     0.0000     2.0000 </r>
       <r>   -21.6660     0.0000     2.0000 </r>
       <r>   -21.5751     0.0000     2.0000 </r>
       <r>   -21.4843     0.0000     2.0000 </r>
       <r>   -21.3934     0.0000     2.0000 </r>
       <r>   -21.3025     0.0000     2.0000 </r>
       <r>   -21.2117     0.0000     2.0000 </r>
       <r>   -21.1208     0.0000     2.0000 </r>
       <r>   -21.0300     0.0000     2.0000 </r>
       <r>   -20.9391     0.0000     2.0000 </r>
       <r>   -20.8482     0.0000     2.0000 </r>
       <r>   -20.7574     0.0000     2.0000 </r>
       <r>   -20.6665     0.0000     2.0000 </r>
       <r>   -20.5756     0.0000     2.0000 </r>
       <r>   -20.4848     0.0002     2.0000 </r>
       <r>   -20.3939     0.0033     2.0003 </r>
       <r>   -20.3030     0.0372     2.0037 </r>
       <r>   -20.2122     0.2777     2.0289 </r>
       <r>   -20.1213     1.3880     2.1551 </r>
       <r>   -20.0304     4.6492     2.5775 </r>
       <r>   -19.9396    10.4431     3.5264 </r>
       <r>   -19.8487    15.7382     4.9565 </r>
       <r>   -19.7578    15.9169     6.4028 </r>
       <r>   -19.6670    10.8028     7.3844 </r>
       <r>   -19.5761     4.9193     7.8313 </r>
       <r>   -19.4852     1.5023     7.9679 </r>
       <r>   -19.3944     0.3075     7.9958 </r>
       <r>   -19.3035     0.0422     7.9996 </r>
       <r>   -19.2127     0.0039     8.0000 </r>
       <r>   -19.1218     0.0002     8.0000 </r>
       <r>   -19.0309     0.0000     8.0000 </r>
       <r>   -18.9401     0.0000     8.0000 </r>
       <r>   -18.8492     0.0000     8.0000 </r>
       <r>   -18.7583     0.0000     8.0000 </r>
       <r>   -18.6675     0.0000     8.0000 </r>
       <r>   -18.5766     0.0000     8.0000 </r>
       <r>   -18.4857     0.0000     8.0000 </r>
       <r>   -18.3949     0.0000     8.0000 </r>
       <r>   -18.3040     0.0000     8.0000 </r>
       <r>   -18.2131     0.0000     8.0000 </r>
       <r>   -18.1223     0.0000     8.0000 </r>
       <r>   -18.0314     0.0000     8.0000 </r>
       <r>   -17.9405     0.0000     8.0000 </r>
       <r>   -17.8497     0.0000     8.0000 </r>
       <r>   -17.7588     0.0000     8.0000 </r>
       <r>   -17.6680     0.0000     8.0000 </r>
       <r>   -17.5771     0.0000     8.0000 </r>
       <r>   -17.4862     0.0000     8.0000 </r>
       <r>   -17.3954     0.0000     8.0000 </r>
       <r>   -17.3045     0.0000     8.0000 </r>
       <r>   -17.2136     0.0000     8.0000 </r>
       <r>   -17.1228     0.0000     8.0000 </r>
       <r>   -17.0319     0.0000     8.0000 </r>
       <r>   -16.9410     0.0000     8.0000 </r>
       <r>   -16.8502     0.0000     8.0000 </r>
       <r>   -16.7593     0.0000     8.0000 </r>
       <r>   -16.6684     0.0000     8.0000 </r>
       <r>   -16.5776     0.0000     8.0000 </r>
       <r>   -16.4867     0.0000     8.0000 </r>
       <r>   -16.3958     0.0000     8.0000 </r>
       <r>   -16.3050     0.0000     8.0000 </r>
       <r>   -16.2141     0.0000     8.0000 </r>
       <r>   -16.1232     0.0000     8.0000 </r>
       <r>   -16.0324     0.0000     8.0000 </r>
       <r>   -15.9415     0.0000     8.0000 </r>
       <r>   -15.8507     0.0000     8.0000 </r>
       <r>   -15.7598     0.0000     8.0000 </r>
       <r>   -15.6689     0.0000     8.0000 </r>
       <r>   -15.5781     0.0000     8.0000 </r>
       <r>   -15.4872     0.0000     8.0000 </r>
       <r>   -15.3963     0.0000     8.0000 </r>
       <r>   -15.3055     0.0000     8.0000 </r>
       <r>   -15.2146     0.0000     8.0000 </r>
       <r>   -15.1237     0.0000     8.0000 </r>
       <r>   -15.0329     0.0000     8.0000 </r>
       <r>   -14.9420     0.0000     8.0000 </r>
       <r>   -14.8511     0.0001     8.0000 </r>
       <r>   -14.7603     0.0011     8.0001 </r>
       <r>   -14.6694     0.0124     8.0012 </r>
       <r>   -14.5785     0.0926     8.0097 </r>
       <r>   -14.4877     0.4629     8.0517 </r>
       <r>   -14.3968     1.5503     8.1926 </r>
       <r>   -14.3059     3.4818     8.5090 </r>
       <r>   -14.2151     5.2465     8.9857 </r>
       <r>   -14.1242     5.3053     9.4677 </r>
       <r>   -14.0334     3.6002     9.7949 </r>
       <r>   -13.9425     1.6392     9.9438 </r>
       <r>   -13.8516     0.5005     9.9893 </r>
       <r>   -13.7608     0.1024     9.9986 </r>
       <r>   -13.6699     0.0140     9.9999 </r>
       <r>   -13.5790     0.0013    10.0000 </r>
       <r>   -13.4882     0.0001    10.0000 </r>
       <r>   -13.3973     0.0000    10.0000 </r>
       <r>   -13.3064     0.0000    10.0000 </r>
       <r>   -13.2156     0.0000    10.0000 </r>
       <r>   -13.1247     0.0000    10.0000 </r>
       <r>   -13.0338     0.0000    10.0000 </r>
       <r>   -12.9430     0.0000    10.0000 </r>
       <r>   -12.8521     0.0000    10.0000 </r>
       <r>   -12.7612     0.0000    10.0000 </r>
       <r>   -12.6704     0.0000    10.0000 </r>
       <r>   -12.5795     0.0000    10.0000 </r>
       <r>   -12.4887     0.0000    10.0000 </r>
       <r>   -12.3978     0.0000    10.0000 </r>
       <r>   -12.3069     0.0000    10.0000 </r>
       <r>   -12.2161     0.0000    10.0000 </r>
       <r>   -12.1252     0.0000    10.0000 </r>
       <r>   -12.0343     0.0000    10.0000 </r>
       <r>   -11.9435     0.0000    10.0000 </r>
       <r>   -11.8526     0.0000    10.0000 </r>
       <r>   -11.7617     0.0000    10.0000 </r>
       <r>   -11.6709     0.0000    10.0000 </r>
       <r>   -11.5800     0.0003    10.0000 </r>
       <r>   -11.4891     0.0051    10.0005 </r>
       <r>   -11.3983     0.0533    10.0053 </r>
       <r>   -11.3074     0.3722    10.0392 </r>
       <r>   -11.2165     1.7414    10.1974 </r>
       <r>   -11.1257     5.4608    10.6936 </r>
       <r>   -11.0348    11.4848    11.7372 </r>
       <r>   -10.9439    16.2065    13.2098 </r>
       <r>   -10.8531    15.3474    14.6043 </r>
       <r>   -10.7622     9.7533    15.4905 </r>
       <r>   -10.6714     4.1584    15.8684 </r>
       <r>   -10.5805     1.1889    15.9764 </r>
       <r>   -10.4896     0.2278    15.9971 </r>
       <r>   -10.3988     0.0292    15.9998 </r>
       <r>   -10.3079     0.0025    16.0000 </r>
       <r>   -10.2170     0.0001    16.0000 </r>
       <r>   -10.1262     0.0000    16.0000 </r>
       <r>   -10.0353     0.0000    16.0000 </r>
       <r>    -9.9444     0.0000    16.0000 </r>
       <r>    -9.8536     0.0000    16.0000 </r>
       <r>    -9.7627     0.0000    16.0000 </r>
       <r>    -9.6718     0.0000    16.0000 </r>
       <r>    -9.5810     0.0000    16.0000 </r>
       <r>    -9.4901     0.0000    16.0000 </r>
       <r>    -9.3992     0.0000    16.0000 </r>
       <r>    -9.3084     0.0000    16.0000 </r>
       <r>    -9.2175     0.0000    16.0000 </r>
       <r>    -9.1266     0.0000    16.0000 </r>
       <r>    -9.0358     0.0000    16.0000 </r>
       <r>    -8.9449     0.0000    16.0000 </r>
       <r>    -8.8541     0.0000    16.0000 </r>
       <r>    -8.7632     0.0000    16.0000 </r>
       <r>    -8.6723     0.0000    16.0000 </r>
       <r>    -8.5815     0.0000    16.0000 </r>
       <r>    -8.4906     0.0000    16.0000 </r>
       <r>    -8.3997     0.0000    16.0000 </r>
       <r>    -8.3089     0.0000    16.0000 </r>
       <r>    -8.2180     0.0001    16.0000 </r>
       <r>    -8.1271     0.0017    16.0002 </r>
       <r>    -8.0363     0.0199    16.0020 </r>
       <r>    -7.9454     0.1547    16.0160 </r>
       <r>    -7.8545     0.8044    16.0891 </r>
       <r>    -7.7637     2.8020    16.3437 </r>
       <r>    -7.6728     6.5453    16.9385 </r>
       <r>    -7.5819    10.2581    17.8706 </r>
       <r>    -7.4911    10.7922    18.8512 </r>
       <r>    -7.4002     7.6575    19.5470 </r>
       <r>    -7.3094     3.9199    19.9032 </r>
       <r>    -7.2185     2.6728    20.1460 </r>
       <r>    -7.1276     5.2218    20.6205 </r>
       <r>    -7.0368    10.9141    21.6122 </r>
       <r>    -6.9459    15.9559    23.0621 </r>
       <r>    -6.8550    15.6980    24.4885 </r>
       <r>    -6.7642    10.3663    25.4304 </r>
       <r>    -6.6733     4.5930    25.8477 </r>
       <r>    -6.5824     1.3676    25.9720 </r>
       <r>    -6.4916     0.3052    25.9997 </r>
       <r>    -6.4007     0.2907    26.0261 </r>
       <r>    -6.3098     1.2998    26.1442 </r>
       <r>    -6.2190     4.4272    26.5465 </r>
       <r>    -6.1281    10.1367    27.4676 </r>
       <r>    -6.0372    15.5724    28.8826 </r>
       <r>    -5.9464    16.0541    30.3413 </r>
       <r>    -5.8555    11.1070    31.3506 </r>
       <r>    -5.7646     5.1558    31.8190 </r>
       <r>    -5.6738     1.6051    31.9649 </r>
       <r>    -5.5829     0.3349    31.9953 </r>
       <r>    -5.4921     0.0468    31.9996 </r>
       <r>    -5.4012     0.0044    32.0000 </r>
       <r>    -5.3103     0.0003    32.0000 </r>
       <r>    -5.2195     0.0000    32.0000 </r>
       <r>    -5.1286     0.0000    32.0000 </r>
       <r>    -5.0377     0.0000    32.0000 </r>
       <r>    -4.9469     0.0000    32.0000 </r>
       <r>    -4.8560     0.0000    32.0000 </r>
       <r>    -4.7651     0.0000    32.0000 </r>
       <r>    -4.6743     0.0000    32.0000 </r>
       <r>    -4.5834     0.0000    32.0000 </r>
       <r>    -4.4925     0.0000    32.0000 </r>
       <r>    -4.4017     0.0000    32.0000 </r>
       <r>    -4.3108     0.0000    32.0000 </r>
       <r>    -4.2199     0.0000    32.0000 </r>
       <r>    -4.1291     0.0000    32.0000 </r>
       <r>    -4.0382     0.0000    32.0000 </r>
       <r>    -3.9473     0.0000    32.0000 </r>
       <r>    -3.8565     0.0000    32.0000 </r>
       <r>    -3.7656     0.0000    32.0000 </r>
       <r>    -3.6748     0.0000    32.0000 </r>
       <r>    -3.5839     0.0000    32.0000 </r>
       <r>    -3.4930     0.0000    32.0000 </r>
       <r>    -3.4022     0.0000    32.0000 </r>
       <r>    -3.3113     0.0000    32.0000 </r>
       <r>    -3.2204     0.0000    32.0000 </r>
       <r>    -3.1296     0.0000    32.0000 </r>
       <r>    -3.0387     0.0000    32.0000 </r>
       <r>    -2.9478     0.0000    32.0000 </r>
       <r>    -2.8570     0.0000    32.0000 </r>
       <r>    -2.7661     0.0000    32.0000 </r>
       <r>    -2.6752     0.0000    32.0000 </r>
       <r>    -2.5844     0.0000    32.0000 </r>
       <r>    -2.4935     0.0000    32.0000 </r>
       <r>    -2.4026     0.0000    32.0000 </r>
       <r>    -2.3118     0.0000    32.0000 </r>
       <r>    -2.2209     0.0000    32.0000 </r>
       <r>    -2.1301     0.0000    32.0000 </r>
       <r>    -2.0392     0.0000    32.0000 </r>
       <r>    -1.9483     0.0000    32.0000 </r>
       <r>    -1.8575     0.0001    32.0000 </r>
       <r>    -1.7666     0.0016    32.0002 </r>
       <r>    -1.6757     0.0168    32.0017 </r>
       <r>    -1.5849     0.1188    32.0125 </r>
       <r>    -1.4940     0.5614    32.0635 </r>
       <r>    -1.4031     1.7779    32.2250 </r>
       <r>    -1.3123     3.7765    32.5682 </r>
       <r>    -1.2214     5.3821    33.0572 </r>
       <r>    -1.1305     5.1475    33.5250 </r>
       <r>    -1.0397     3.3038    33.8252 </r>
       <r>    -0.9488     1.4226    33.9544 </r>
       <r>    -0.8579     0.4108    33.9918 </r>
       <r>    -0.7671     0.0795    33.9990 </r>
       <r>    -0.6762     0.0103    33.9999 </r>
       <r>    -0.5853     0.0009    34.0000 </r>
       <r>    -0.4945     0.0001    34.0000 </r>
       <r>    -0.4036     0.0002    34.0000 </r>
       <r>    -0.3128     0.0039    34.0004 </r>
       <r>    -0.2219     0.0422    34.0042 </r>
       <r>    -0.1310     0.3078    34.0322 </r>
       <r>    -0.0402     1.5034    34.1688 </r>
       <r>     0.0507     4.9217    34.6160 </r>
       <r>     0.1416    10.8056    35.5978 </r>
       <r>     0.2324    15.9178    37.0442 </r>
       <r>     0.3233    15.7363    38.4741 </r>
       <r>     0.4142    10.4402    39.4227 </r>
       <r>     0.5050     4.6473    39.8450 </r>
       <r>     0.5959     1.3873    39.9711 </r>
       <r>     0.6868     0.2776    39.9963 </r>
       <r>     0.7776     0.0372    39.9997 </r>
       <r>     0.8685     0.0033    40.0000 </r>
       <r>     0.9594     0.0002    40.0000 </r>
       <r>     1.0502     0.0000    40.0000 </r>
       <r>     1.1411     0.0000    40.0000 </r>
       <r>     1.2320     0.0000    40.0000 </r>
       <r>     1.3228     0.0000    40.0000 </r>
       <r>     1.4137     0.0000    40.0000 </r>
       <r>     1.5045     0.0000    40.0000 </r>
       <r>     1.5954     0.0000    40.0000 </r>
       <r>     1.6863     0.0000    40.0000 </r>
       <r>     1.7771     0.0000    40.0000 </r>
       <r>     1.8680     0.0000    40.0000 </r>
       <r>     1.9589     0.0000    40.0000 </r>
       <r>     2.0497     0.0000    40.0000 </r>
       <r>     2.1406     0.0000    40.0000 </r>
       <r>     2.2315     0.0000    40.0000 </r>
      </set>
     </set>
    </array>
   </total>
  </dos>
 </calculation>
 <structure name="finalpos" >
  <crystal>
   <varray name="basis" >
    <v>       8.00000000       0.00000000       0.00000000 </v>
    <v>       0.00000000       8.00000000       0.00000000 </v>
    <v>       0.00000000       0.00000000       8.00000000 </v>
   </varray>
   <i name="volume">    512.00000000 </i>
   <varray name="rec_basis" >
    <v>       0.12500000       0.00000000       0.00000000 </v>
    <v>       0.00000000       0.12500000       0.00000000 </v>
    <v>       0.00000000       0.00000000       0.12500000 </v>
   </varray>
  </crystal>
  <varray name="positions" >
   <v>       0.00000000       0.00000000       0.00000000 </v>
   <v>       0.12821793       0.12821793       0.12821793 </v>
   <v>       0.87178207       0.87178207       0.12821793 </v>
   <v>       0.87178207       0.12821793       0.87178207 </v>
   <v>       0.12821793       0.87178207       0.87178207 </v>
  </varray>
 </structure>
</modeling>
