 running on    1 nodes
 distr:  one band on    1 nodes,    1 groups
 vasp.5.2.12 11Nov11 complex                                                    
  
 POSCAR found :  2 types and       5 ions
 LDA part: xc-table for Pade appr. of Perdew
 POSCAR, INCAR and KPOINTS ok, starting setup
 WARNING: small aliasing (wrap around) errors must be expected
 FFT: planning ...(           1 )
 WAVECAR not read
 entering main loop
       N       E                     dE             d eps       ncg     rms          rms(c)
DAV:   1     0.426443236709E+02    0.42644E+02   -0.18181E+03    16   0.499E+02
DAV:   2    -0.891353922280E+01   -0.51558E+02   -0.51558E+02    16   0.911E+01
DAV:   3    -0.264957771099E+02   -0.17582E+02   -0.17582E+02    16   0.722E+01
DAV:   4    -0.276847963807E+02   -0.11890E+01   -0.11890E+01    32   0.243E+01
DAV:   5    -0.276855360416E+02   -0.73966E-03   -0.73966E-03    32   0.656E-01    0.861E+00
DAV:   6    -0.246886901217E+02    0.29968E+01   -0.91397E+00    24   0.173E+01    0.385E+00
DAV:   7    -0.241848241261E+02    0.50387E+00   -0.81416E-01    32   0.500E+00    0.195E+00
DAV:   8    -0.240192848312E+02    0.16554E+00   -0.20407E-01    24   0.311E+00    0.278E-01
DAV:   9    -0.240196838715E+02   -0.39904E-03   -0.10836E-02    16   0.574E-01    0.198E-01
DAV:  10    -0.240170440547E+02    0.26398E-02   -0.26821E-03    16   0.382E-01    0.723E-02
DAV:  11    -0.240246482458E+02   -0.76042E-02   -0.20283E-03    16   0.276E-01    0.739E-02
DAV:  12    -0.240266227534E+02   -0.19745E-02   -0.40478E-04    16   0.148E-01    0.138E-02
DAV:  13    -0.240282031782E+02   -0.15804E-02   -0.26167E-04    16   0.882E-02    0.864E-03
DAV:  14    -0.240282211056E+02   -0.17927E-04   -0.13485E-06    24   0.809E-03
   1 F= -.24028221E+02 E0= -.24028221E+02  d E =-.240282E+02
 curvature:   0.00 expect dE= 0.000E+00 dE for cont linesearch  0.000E+00
 trial: gam= 0.00000 g(F)=  0.910E-02 g(S)=  0.000E+00 ort = 0.000E+00 (trialstep = 0.100E+01)
 search vector abs. value=  0.910E-02
 bond charge predicted
       N       E                     dE             d eps       ncg     rms          rms(c)
DAV:   1    -0.240324004433E+02   -0.41973E-02   -0.21665E-01    16   0.415E+00    0.253E-01
DAV:   2    -0.240302566163E+02    0.21438E-02   -0.58154E-03    24   0.498E-01    0.981E-02
DAV:   3    -0.240300726784E+02    0.18394E-03   -0.27330E-03    24   0.300E-01    0.385E-02
DAV:   4    -0.240300719481E+02    0.73037E-06   -0.27742E-06    16   0.176E-02
   2 F= -.24030072E+02 E0= -.24030072E+02  d E =-.185084E-02
 trial-energy change:   -0.001851  1 .order   -0.001591   -0.009098    0.005916
 step:   0.6060(harm=  0.6060)  dis= 0.00367  next Energy=   -24.030978 (dE=-0.276E-02)
 bond charge predicted
       N       E                     dE             d eps       ncg     rms          rms(c)
DAV:   1    -0.240317567043E+02   -0.16840E-02   -0.35185E-02    16   0.165E+00    0.128E-01
DAV:   2    -0.240311330484E+02    0.62366E-03   -0.17592E-03    16   0.243E-01    0.420E-02
DAV:   3    -0.240311058670E+02    0.27181E-04   -0.72058E-04    16   0.171E-01
   3 F= -.24031106E+02 E0= -.24031106E+02  d E =-.288476E-02
 curvature:  -0.30 expect dE=-0.960E-05 dE for cont linesearch -0.960E-05
 trial: gam=-0.05553 g(F)=  0.317E-04 g(S)=  0.000E+00 ort = 0.537E-03 (trialstep = 0.921E+00)
 search vector abs. value=  0.110E-06
 reached required accuracy - stopping structural energy minimisation
 writing wavefunctions
NPROCS =  1
