   5   5   0   0
  0.1024000E+03  0.8000000E-09  0.8000000E-09  0.8000000E-09  0.5000000E-15
  1.000000000000000E-004
  CAR 
 unknown system                          
      3.71733549    -18.75268840  301     -8.19163089      1.00000000
    -18.753  0.0000E+00  0.0000E+00
    -18.678  0.0000E+00  0.0000E+00
    -18.603  0.0000E+00  0.0000E+00
    -18.528  0.0000E+00  0.0000E+00
    -18.453  0.0000E+00  0.0000E+00
    -18.378  0.0000E+00  0.0000E+00
    -18.303  0.0000E+00  0.0000E+00
    -18.228  0.0000E+00  0.0000E+00
    -18.153  0.0000E+00  0.0000E+00
    -18.079  0.0000E+00  0.0000E+00
    -18.004  0.0000E+00  0.0000E+00
    -17.929  0.1482E-15  0.1110E-16
    -17.854  0.9042E-14  0.6883E-15
    -17.779  0.5191E-12  0.3957E-13
    -17.704  0.2253E-10  0.1727E-11
    -17.629  0.7415E-09  0.5726E-10
    -17.554  0.1851E-07  0.1443E-08
    -17.479  0.3504E-06  0.2769E-07
    -17.404  0.5035E-05  0.4048E-06
    -17.330  0.5491E-04  0.4517E-05
    -17.255  0.4547E-03  0.3857E-04
    -17.180  0.2859E-02  0.2527E-03
    -17.105  0.1366E-01  0.1276E-02
    -17.030  0.4959E-01  0.4990E-02
    -16.955  0.1368E+00  0.1524E-01
    -16.880  0.2869E+00  0.3673E-01
    -16.805  0.4575E+00  0.7099E-01
    -16.730  0.5545E+00  0.1125E+00
    -16.655  0.5111E+00  0.1508E+00
    -16.581  0.3581E+00  0.1776E+00
    -16.506  0.1908E+00  0.1919E+00
    -16.431  0.7727E-01  0.1977E+00
    -16.356  0.2379E-01  0.1995E+00
    -16.281  0.5564E-02  0.1999E+00
    -16.206  0.9888E-03  0.2000E+00
    -16.131  0.1335E-03  0.2000E+00
    -16.056  0.1368E-04  0.2000E+00
    -15.981  0.1064E-05  0.2000E+00
    -15.906  0.6286E-07  0.2000E+00
    -15.832  0.2817E-08  0.2000E+00
    -15.757  0.9572E-10  0.2000E+00
    -15.682  0.2467E-11  0.2000E+00
    -15.607  0.4832E-13  0.2000E+00
    -15.532  0.5929E-15  0.2000E+00
    -15.457  0.0000E+00  0.2000E+00
    -15.382  0.0000E+00  0.2000E+00
    -15.307  0.0000E+00  0.2000E+00
    -15.232  0.0000E+00  0.2000E+00
    -15.157  0.0000E+00  0.2000E+00
    -15.083  0.0000E+00  0.2000E+00
    -15.008  0.0000E+00  0.2000E+00
    -14.933  0.0000E+00  0.2000E+00
    -14.858  0.0000E+00  0.2000E+00
    -14.783  0.0000E+00  0.2000E+00
    -14.708  0.0000E+00  0.2000E+00
    -14.633  0.0000E+00  0.2000E+00
    -14.558  0.0000E+00  0.2000E+00
    -14.483  0.0000E+00  0.2000E+00
    -14.408  0.0000E+00  0.2000E+00
    -14.334  0.0000E+00  0.2000E+00
    -14.259  0.0000E+00  0.2000E+00
    -14.184  0.0000E+00  0.2000E+00
    -14.109  0.0000E+00  0.2000E+00
    -14.034  0.0000E+00  0.2000E+00
    -13.959  0.0000E+00  0.2000E+00
    -13.884  0.0000E+00  0.2000E+00
    -13.809  0.0000E+00  0.2000E+00
    -13.734  0.0000E+00  0.2000E+00
    -13.659  0.0000E+00  0.2000E+00
    -13.585  0.0000E+00  0.2000E+00
    -13.510  0.0000E+00  0.2000E+00
    -13.435  0.0000E+00  0.2000E+00
    -13.360  0.0000E+00  0.2000E+00
    -13.285  0.0000E+00  0.2000E+00
    -13.210  0.0000E+00  0.2000E+00
    -13.135  0.0000E+00  0.2000E+00
    -13.060  0.0000E+00  0.2000E+00
    -12.985  0.0000E+00  0.2000E+00
    -12.910  0.0000E+00  0.2000E+00
    -12.836  0.0000E+00  0.2000E+00
    -12.761  0.0000E+00  0.2000E+00
    -12.686  0.0000E+00  0.2000E+00
    -12.611  0.0000E+00  0.2000E+00
    -12.536  0.0000E+00  0.2000E+00
    -12.461  0.0000E+00  0.2000E+00
    -12.386  0.0000E+00  0.2000E+00
    -12.311  0.0000E+00  0.2000E+00
    -12.236  0.0000E+00  0.2000E+00
    -12.161  0.0000E+00  0.2000E+00
    -12.087  0.0000E+00  0.2000E+00
    -12.012  0.0000E+00  0.2000E+00
    -11.937  0.0000E+00  0.2000E+00
    -11.862  0.0000E+00  0.2000E+00
    -11.787  0.0000E+00  0.2000E+00
    -11.712  0.0000E+00  0.2000E+00
    -11.637  0.0000E+00  0.2000E+00
    -11.562  0.0000E+00  0.2000E+00
    -11.487  0.0000E+00  0.2000E+00
    -11.412  0.0000E+00  0.2000E+00
    -11.338  0.0000E+00  0.2000E+00
    -11.263  0.0000E+00  0.2000E+00
    -11.188  0.0000E+00  0.2000E+00
    -11.113  0.0000E+00  0.2000E+00
    -11.038  0.0000E+00  0.2000E+00
    -10.963  0.0000E+00  0.2000E+00
    -10.888  0.0000E+00  0.2000E+00
    -10.813  0.0000E+00  0.2000E+00
    -10.738  0.0000E+00  0.2000E+00
    -10.663  0.0000E+00  0.2000E+00
    -10.589  0.0000E+00  0.2000E+00
    -10.514  0.0000E+00  0.2000E+00
    -10.439  0.0000E+00  0.2000E+00
    -10.364  0.0000E+00  0.2000E+00
    -10.289  0.5336E-14  0.2000E+00
    -10.214  0.3277E-12  0.2000E+00
    -10.139  0.1588E-10  0.2000E+00
    -10.064  0.5825E-09  0.2000E+00
     -9.989  0.1621E-07  0.2000E+00
     -9.914  0.3420E-06  0.2000E+00
     -9.840  0.5477E-05  0.2000E+00
     -9.765  0.6657E-04  0.2000E+00
     -9.690  0.6142E-03  0.2001E+00
     -9.615  0.4303E-02  0.2004E+00
     -9.540  0.2290E-01  0.2021E+00
     -9.465  0.9262E-01  0.2090E+00
     -9.390  0.2846E+00  0.2303E+00
     -9.315  0.6648E+00  0.2801E+00
     -9.240  0.1181E+01  0.3686E+00
     -9.165  0.1594E+01  0.4879E+00
     -9.091  0.1636E+01  0.6105E+00
     -9.016  0.1277E+01  0.7061E+00
     -8.941  0.7575E+00  0.7628E+00
     -8.866  0.3417E+00  0.7884E+00
     -8.791  0.1172E+00  0.7972E+00
     -8.716  0.3053E-01  0.7995E+00
     -8.641  0.6044E-02  0.7999E+00
     -8.566  0.9089E-03  0.8000E+00
     -8.491  0.1038E-03  0.8000E+00
     -8.416  0.9002E-05  0.8000E+00
     -8.342  0.5925E-06  0.8000E+00
     -8.267  0.2959E-07  0.8000E+00
     -8.192  0.1121E-08  0.8000E+00
     -8.117  0.3221E-10  0.8000E+00
     -8.042  0.7017E-12  0.8000E+00
     -7.967  0.1156E-13  0.8000E+00
     -7.892  0.0000E+00  0.8000E+00
     -7.817  0.0000E+00  0.8000E+00
     -7.742  0.0000E+00  0.8000E+00
     -7.667  0.0000E+00  0.8000E+00
     -7.593  0.0000E+00  0.8000E+00
     -7.518  0.0000E+00  0.8000E+00
     -7.443  0.0000E+00  0.8000E+00
     -7.368  0.0000E+00  0.8000E+00
     -7.293  0.0000E+00  0.8000E+00
     -7.218  0.0000E+00  0.8000E+00
     -7.143  0.0000E+00  0.8000E+00
     -7.068  0.0000E+00  0.8000E+00
     -6.993  0.0000E+00  0.8000E+00
     -6.918  0.0000E+00  0.8000E+00
     -6.844  0.0000E+00  0.8000E+00
     -6.769  0.0000E+00  0.8000E+00
     -6.694  0.0000E+00  0.8000E+00
     -6.619  0.0000E+00  0.8000E+00
     -6.544  0.0000E+00  0.8000E+00
     -6.469  0.0000E+00  0.8000E+00
     -6.394  0.0000E+00  0.8000E+00
     -6.319  0.0000E+00  0.8000E+00
     -6.244  0.0000E+00  0.8000E+00
     -6.169  0.0000E+00  0.8000E+00
     -6.095  0.0000E+00  0.8000E+00
     -6.020  0.0000E+00  0.8000E+00
     -5.945  0.0000E+00  0.8000E+00
     -5.870  0.0000E+00  0.8000E+00
     -5.795  0.0000E+00  0.8000E+00
     -5.720  0.0000E+00  0.8000E+00
     -5.645  0.0000E+00  0.8000E+00
     -5.570  0.0000E+00  0.8000E+00
     -5.495  0.0000E+00  0.8000E+00
     -5.420  0.0000E+00  0.8000E+00
     -5.346  0.0000E+00  0.8000E+00
     -5.271  0.0000E+00  0.8000E+00
     -5.196  0.0000E+00  0.8000E+00
     -5.121  0.0000E+00  0.8000E+00
     -5.046  0.0000E+00  0.8000E+00
     -4.971  0.0000E+00  0.8000E+00
     -4.896  0.0000E+00  0.8000E+00
     -4.821  0.0000E+00  0.8000E+00
     -4.746  0.0000E+00  0.8000E+00
     -4.671  0.0000E+00  0.8000E+00
     -4.597  0.0000E+00  0.8000E+00
     -4.522  0.0000E+00  0.8000E+00
     -4.447  0.0000E+00  0.8000E+00
     -4.372  0.0000E+00  0.8000E+00
     -4.297  0.0000E+00  0.8000E+00
     -4.222  0.0000E+00  0.8000E+00
     -4.147  0.0000E+00  0.8000E+00
     -4.072  0.0000E+00  0.8000E+00
     -3.997  0.0000E+00  0.8000E+00
     -3.922  0.0000E+00  0.8000E+00
     -3.848  0.0000E+00  0.8000E+00
     -3.773  0.0000E+00  0.8000E+00
     -3.698  0.0000E+00  0.8000E+00
     -3.623  0.0000E+00  0.8000E+00
     -3.548  0.0000E+00  0.8000E+00
     -3.473  0.0000E+00  0.8000E+00
     -3.398  0.0000E+00  0.8000E+00
     -3.323  0.0000E+00  0.8000E+00
     -3.248  0.0000E+00  0.8000E+00
     -3.173  0.0000E+00  0.8000E+00
     -3.099  0.0000E+00  0.8000E+00
     -3.024  0.0000E+00  0.8000E+00
     -2.949  0.0000E+00  0.8000E+00
     -2.874  0.0000E+00  0.8000E+00
     -2.799  0.0000E+00  0.8000E+00
     -2.724  0.0000E+00  0.8000E+00
     -2.649  0.0000E+00  0.8000E+00
     -2.574  0.0000E+00  0.8000E+00
     -2.499  0.0000E+00  0.8000E+00
     -2.424  0.0000E+00  0.8000E+00
     -2.350  0.0000E+00  0.8000E+00
     -2.275  0.0000E+00  0.8000E+00
     -2.200  0.0000E+00  0.8000E+00
     -2.125  0.0000E+00  0.8000E+00
     -2.050  0.0000E+00  0.8000E+00
     -1.975  0.0000E+00  0.8000E+00
     -1.900  0.0000E+00  0.8000E+00
     -1.825  0.0000E+00  0.8000E+00
     -1.750  0.3706E-14  0.8000E+00
     -1.675  0.2182E-12  0.8000E+00
     -1.601  0.1007E-10  0.8000E+00
     -1.526  0.3522E-09  0.8000E+00
     -1.451  0.9342E-08  0.8000E+00
     -1.376  0.1880E-06  0.8000E+00
     -1.301  0.2869E-05  0.8000E+00
     -1.226  0.3325E-04  0.8000E+00
     -1.151  0.2925E-03  0.8000E+00
     -1.076  0.1954E-02  0.8002E+00
     -1.001  0.9917E-02  0.8009E+00
     -0.926  0.3824E-01  0.8038E+00
     -0.852  0.1121E+00  0.8122E+00
     -0.777  0.2496E+00  0.8309E+00
     -0.702  0.4227E+00  0.8625E+00
     -0.627  0.5442E+00  0.9033E+00
     -0.552  0.5327E+00  0.9432E+00
     -0.477  0.3965E+00  0.9729E+00
     -0.402  0.2243E+00  0.9897E+00
     -0.327  0.9650E-01  0.9969E+00
     -0.252  0.3155E-01  0.9993E+00
     -0.177  0.7840E-02  0.9999E+00
     -0.103  0.1480E-02  0.1000E+01
     -0.028  0.2122E-03  0.1000E+01
      0.047  0.2311E-04  0.1000E+01
      0.122  0.1911E-05  0.1000E+01
      0.197  0.1199E-06  0.1000E+01
      0.272  0.5708E-08  0.1000E+01
      0.347  0.2061E-09  0.1000E+01
      0.422  0.5645E-11  0.1000E+01
      0.497  0.1174E-12  0.1000E+01
      0.572  0.4002E-14  0.1000E+01
      0.646  0.1445E-12  0.1000E+01
      0.721  0.7400E-11  0.1000E+01
      0.796  0.2872E-09  0.1000E+01
      0.871  0.8450E-08  0.1000E+01
      0.946  0.1886E-06  0.1000E+01
      1.021  0.3194E-05  0.1000E+01
      1.096  0.4104E-04  0.1000E+01
      1.171  0.4004E-03  0.1000E+01
      1.246  0.2966E-02  0.1000E+01
      1.321  0.1669E-01  0.1002E+01
      1.395  0.7136E-01  0.1007E+01
      1.470  0.2318E+00  0.1024E+01
      1.545  0.5724E+00  0.1067E+01
      1.620  0.1074E+01  0.1148E+01
      1.695  0.1533E+01  0.1262E+01
      1.770  0.1664E+01  0.1387E+01
      1.845  0.1372E+01  0.1490E+01
      1.920  0.8608E+00  0.1554E+01
      1.995  0.4105E+00  0.1585E+01
      2.070  0.1488E+00  0.1596E+01
      2.144  0.4098E-01  0.1599E+01
      2.219  0.8578E-02  0.1600E+01
      2.294  0.1364E-02  0.1600E+01
      2.369  0.1647E-03  0.1600E+01
      2.444  0.1510E-04  0.1600E+01
      2.519  0.1051E-05  0.1600E+01
      2.594  0.5552E-07  0.1600E+01
      2.669  0.2224E-08  0.1600E+01
      2.744  0.6759E-10  0.1600E+01
      2.819  0.1557E-11  0.1600E+01
      2.893  0.2757E-13  0.1600E+01
      2.968  0.0000E+00  0.1600E+01
      3.043  0.0000E+00  0.1600E+01
      3.118  0.0000E+00  0.1600E+01
      3.193  0.0000E+00  0.1600E+01
      3.268  0.0000E+00  0.1600E+01
      3.343  0.0000E+00  0.1600E+01
      3.418  0.0000E+00  0.1600E+01
      3.493  0.0000E+00  0.1600E+01
      3.568  0.0000E+00  0.1600E+01
      3.642  0.0000E+00  0.1600E+01
      3.717  0.0000E+00  0.1600E+01
