    5    5   10    1
  0.1024000E+03  0.8000000E-09  0.8000000E-09  0.8000000E-09  0.5000000E-15
  1.000000000000000E-004
  CAR 
 unknown system                          
    8    1    8
 
  0.0000000E+00  0.0000000E+00  0.0000000E+00  0.1000000E+01
   1      -16.752688
   2       -9.158346
   3       -9.158346
   4       -9.158346
   5       -0.632705
   6        1.717334
   7        1.717334
   8        1.717335
