<?xml version="1.0" encoding="ISO-8859-1"?>
<modeling>
 <generator>
  <i name="program" type="string">vasp </i>
  <i name="version" type="string">5.2.12  </i>
  <i name="subversion" type="string">11Nov11 complex                                                      parallel </i>
  <i name="platform" type="string">LinuxIFC </i>
  <i name="date" type="string">2012 10 30 </i>
  <i name="time" type="string">23:19:17 </i>
 </generator>
 <incar>
  <i type="string" name="PREC">normal</i>
  <i type="int" name="IBRION">     2</i>
  <i type="int" name="NSW">    10</i>
  <i name="ENCUT">    450.00000000</i>
  <i type="int" name="ISMEAR">     0</i>
 </incar>
 <kpoints>
  <generation param="Monkhorst-Pack">
   <v type="int" name="divisions">       1        1        1 </v>
   <v name="usershift">      0.00000000       0.00000000       0.00000000 </v>
   <v name="genvec1">      1.00000000       0.00000000       0.00000000 </v>
   <v name="genvec2">      0.00000000       1.00000000       0.00000000 </v>
   <v name="genvec3">      0.00000000       0.00000000       1.00000000 </v>
   <v name="shift">      0.00000000       0.00000000       0.00000000 </v>
  </generation>
  <varray name="kpointlist" >
   <v>       0.00000000       0.00000000       0.00000000 </v>
  </varray>
  <varray name="weights" >
   <v>       1.00000000 </v>
  </varray>
 </kpoints>
 <parameters>
  <separator name="general" >
   <i type="string" name="SYSTEM">unknown system</i>
   <i type="logical" name="LCOMPAT"> F  </i>
  </separator>
  <separator name="electronic" >
   <i type="string" name="PREC">normal</i>
   <i name="ENMAX">    450.00000000</i>
   <i name="ENAUG">    644.87300000</i>
   <i name="EDIFF">      0.00010000</i>
   <i type="int" name="IALGO">    38</i>
   <i type="int" name="IWAVPR">    11</i>
   <i type="int" name="NBANDS">     8</i>
   <i name="NELECT">      8.00000000</i>
   <i type="int" name="TURBO">     0</i>
   <i type="int" name="IRESTART">     0</i>
   <i type="int" name="NREBOOT">     0</i>
   <i type="int" name="NMIN">     0</i>
   <i name="EREF">      0.00000000</i>
   <separator name="electronic smearing" >
    <i type="int" name="ISMEAR">     0</i>
    <i name="SIGMA">      0.20000000</i>
    <i name="KSPACING">      0.50000000</i>
    <i type="logical" name="KGAMMA"> T  </i>
   </separator>
   <separator name="electronic projectors" >
    <i type="logical" name="LREAL"> F  </i>
    <v name="ROPT">      0.00000000      0.00000000</v>
    <i type="int" name="LMAXPAW">  -100</i>
    <i type="int" name="LMAXMIX">     2</i>
    <i type="logical" name="NLSPLINE"> F  </i>
   </separator>
   <separator name="electronic startup" >
    <i type="int" name="ISTART">     0</i>
    <i type="int" name="ICHARG">     2</i>
    <i type="int" name="INIWAV">     1</i>
   </separator>
   <separator name="electronic spin" >
    <i type="int" name="ISPIN">     1</i>
    <i type="logical" name="LNONCOLLINEAR"> F  </i>
    <v name="MAGMOM">      1.00000000      1.00000000      1.00000000      1.00000000      1.00000000</v>
    <i name="NUPDOWN">     -1.00000000</i>
    <i type="logical" name="LSORBIT"> F  </i>
    <v name="SAXIS">      0.00000000      0.00000000      1.00000000</v>
    <i type="logical" name="LSPIRAL"> F  </i>
    <v name="QSPIRAL">      0.00000000      0.00000000      0.00000000</v>
    <i type="logical" name="LZEROZ"> F  </i>
   </separator>
   <separator name="electronic exchange-correlation" >
    <i type="logical" name="LASPH"> F  </i>
    <i type="logical" name="LMETAGGA"> F  </i>
   </separator>
   <separator name="electronic convergence" >
    <i type="int" name="NELM">    60</i>
    <i type="int" name="NELMDL">    -5</i>
    <i type="int" name="NELMIN">     2</i>
    <i name="ENINI">    450.00000000</i>
    <separator name="electronic convergence detail" >
     <i type="logical" name="LDIAG"> T  </i>
     <i type="logical" name="LSUBROT"> T  </i>
     <i name="WEIMIN">      0.00100000</i>
     <i name="EBREAK">      0.00000313</i>
     <i name="DEPER">      0.30000000</i>
     <i type="int" name="NRMM">     4</i>
     <i name="TIME">      0.40000000</i>
    </separator>
   </separator>
   <separator name="electronic mixer" >
    <i name="AMIX">      0.40000000</i>
    <i name="BMIX">      1.00000000</i>
    <i name="AMIN">      0.10000000</i>
    <i name="AMIX_MAG">      1.60000000</i>
    <i name="BMIX_MAG">      1.00000000</i>
    <separator name="electronic mixer details" >
     <i type="int" name="IMIX">     4</i>
     <i type="int" name="MAXMIX">   -45</i>
     <i name="WC">    100.00000000</i>
     <i type="int" name="INIMIX">     1</i>
     <i type="int" name="MIXPRE">     1</i>
     <i type="int" name="MREMOVE">     5</i>
    </separator>
   </separator>
   <separator name="electronic dipolcorrection" >
    <i type="logical" name="LDIPOL"> F  </i>
    <i type="logical" name="LMONO"> F  </i>
    <i type="int" name="IDIPOL">     0</i>
    <i name="EPSILON">      1.00000000</i>
    <v name="DIPOL">   -100.00000000   -100.00000000   -100.00000000</v>
    <i name="EFIELD">      0.00000000</i>
   </separator>
  </separator>
  <separator name="grids" >
   <i type="int" name="NGX">    42</i>
   <i type="int" name="NGY">    42</i>
   <i type="int" name="NGZ">    42</i>
   <i type="int" name="NGXF">    84</i>
   <i type="int" name="NGYF">    84</i>
   <i type="int" name="NGZF">    84</i>
   <i type="logical" name="ADDGRID"> F  </i>
  </separator>
  <separator name="ionic" >
   <i type="int" name="NSW">    10</i>
   <i type="int" name="IBRION">     2</i>
   <i type="int" name="ISIF">     2</i>
   <i name="PSTRESS">      0.00000000</i>
   <i name="EDIFFG">      0.00100000</i>
   <i type="int" name="NFREE">     1</i>
   <i name="POTIM">      0.50000000</i>
   <i name="SMASS">     -3.00000000</i>
   <i name="SCALEE">      1.00000000</i>
  </separator>
  <separator name="ionic md" >
   <i name="TEBEG">      0.00010000</i>
   <i name="TEEND">      0.00010000</i>
   <i type="int" name="NBLOCK">     1</i>
   <i type="int" name="KBLOCK">    10</i>
   <i type="int" name="NPACO">   256</i>
   <i name="APACO">     16.00000000</i>
  </separator>
  <separator name="symmetry" >
   <i type="int" name="ISYM">     2</i>
   <i name="SYMPREC">      0.00001000</i>
  </separator>
  <separator name="dos" >
   <i type="logical" name="LORBIT"> F  </i>
   <v name="RWIGS">     -1.00000000     -1.00000000</v>
   <i type="int" name="NEDOS">   301</i>
   <i name="EMIN">     10.00000000</i>
   <i name="EMAX">    -10.00000000</i>
   <i name="EFERMI">      0.00000000</i>
  </separator>
  <separator name="writing" >
   <i type="int" name="NWRITE">     2</i>
   <i type="logical" name="LWAVE"> T  </i>
   <i type="logical" name="LCHARG"> T  </i>
   <i type="logical" name="LPARD"> F  </i>
   <i type="logical" name="LVTOT"> F  </i>
   <i type="logical" name="LVHAR"> F  </i>
   <i type="logical" name="LELF"> F  </i>
   <i type="logical" name="LOPTICS"> F  </i>
   <v name="STM">      0.00000000      0.00000000      0.00000000      0.00000000      0.00000000      0.00000000      0.00000000</v>
  </separator>
  <separator name="performance" >
   <i type="int" name="NPAR">     1</i>
   <i type="int" name="NSIM">     4</i>
   <i type="int" name="NBLK">    -1</i>
   <i type="logical" name="LPLANE"> T  </i>
   <i type="logical" name="LSCALAPACK"> F  </i>
   <i type="logical" name="LSCAAWARE"> F  </i>
   <i type="logical" name="LSCALU"> F  </i>
   <i type="logical" name="LASYNC"> F  </i>
   <i type="logical" name="LORBITALREAL"> F  </i>
  </separator>
  <separator name="miscellaneous" >
   <i type="int" name="IDIOT">     3</i>
   <i type="logical" name="LMUSIC"> F  </i>
   <v name="POMASS">      1.00000000     12.01100000</v>
   <v name="DARWINR">      0.00000000      0.00000000</v>
   <v name="DARWINV">      1.00000000      1.00000000</v>
   <i type="logical" name="LCORR"> T  </i>
  </separator>
  <i type="logical" name="GGA_COMPAT"> T  </i>
  <i type="logical" name="LBERRY"> F  </i>
  <i type="int" name="ICORELEVEL">     0</i>
  <i type="logical" name="LDAU"> F  </i>
  <i type="int" name="I_CONSTRAINED_M">     0</i>
  <separator name="electronic exchange-correlation" >
   <i type="string" name="GGA">--</i>
   <i type="int" name="VOSKOWN">     0</i>
   <i type="logical" name="LHFCALC"> F  </i>
   <i type="string" name="PRECFOCK"></i>
   <i type="logical" name="LHFONE"> F  </i>
   <i type="logical" name="LRHFCALC"> F  </i>
   <i type="logical" name="LTHOMAS"> F  </i>
   <i type="logical" name="LMODELHF"> F  </i>
   <i name="ENCUT4O">     -1.00000000</i>
   <i type="int" name="EXXOEP">     0</i>
   <i type="int" name="FOURORBIT">     0</i>
   <i name="AEXX">      0.00000000</i>
   <i name="HFALPHA">      0.00000000</i>
   <i name="ALDAX">      1.00000000</i>
   <i name="AGGAX">      1.00000000</i>
   <i name="ALDAC">      1.00000000</i>
   <i name="AGGAC">      1.00000000</i>
   <i type="int" name="NKREDX">     1</i>
   <i type="int" name="NKREDY">     1</i>
   <i type="int" name="NKREDZ">     1</i>
   <i type="logical" name="SHIFTRED"> F  </i>
   <i type="logical" name="ODDONLY"> F  </i>
   <i type="logical" name="EVENONLY"> F  </i>
   <i type="int" name="LMAXFOCK">     0</i>
   <i type="int" name="NMAXFOCKAE">     0</i>
   <i type="logical" name="LFOCKAEDFT"> F  </i>
   <i name="HFSCREEN">      0.00000000</i>
   <i name="HFSCREENC">      0.00000000</i>
  </separator>
  <separator name="vdW DFT" >
   <i type="logical" name="LUSE_VDW"> F  </i>
   <i name="Zab_VDW">     -0.84910000</i>
   <i name="PARAM1">      0.12340000</i>
   <i name="PARAM2">      1.00000000</i>
   <i name="PARAM3">      0.00000000</i>
  </separator>
  <separator name="model GW" >
   <i type="int" name="MODEL_GW">     0</i>
   <i name="MODEL_EPS0">     61.44000000</i>
   <i name="MODEL_ALPHA">      1.00000000</i>
  </separator>
  <separator name="linear response parameters" >
   <i type="logical" name="LEPSILON"> F  </i>
   <i type="logical" name="LRPA"> F  </i>
   <i type="logical" name="LNABLA"> F  </i>
   <i type="logical" name="LVEL"> F  </i>
   <i type="int" name="KINTER">     0</i>
   <i name="CSHIFT">      0.10000000</i>
   <i name="OMEGAMAX">     -1.00000000</i>
  </separator>
  <separator name="orbital magnetization" >
   <i type="logical" name="NUCIND"> F  </i>
   <v name="MAGPOS">      0.00000000      0.00000000      0.00000000</v>
   <i type="logical" name="LNICSALL"> T  </i>
   <i type="logical" name="ORBITALMAG"> F  </i>
   <i type="logical" name="LMAGBLOCH"> F  </i>
   <i type="logical" name="LCHIMAG"> F  </i>
   <i type="logical" name="LGAUGE"> T  </i>
   <i type="int" name="MAGATOM">     0</i>
   <v name="MAGDIPOL">      0.00000000      0.00000000      0.00000000</v>
   <v name="AVECCONST">      0.00000000      0.00000000      0.00000000</v>
  </separator>
  <separator name="response functions" >
   <i type="logical" name="LADDER"> F  </i>
   <i type="logical" name="LHARTREE"> T  </i>
   <i type="int" name="IBSE">     0</i>
   <i type="logical" name="LTCTE"> F  </i>
   <i type="logical" name="LTETE"> F  </i>
   <i type="logical" name="LFXCEPS"> F  </i>
   <i type="logical" name="L2ORDER"> F  </i>
   <i type="logical" name="LUSEW"> F  </i>
   <i name="ENCUTGW">     -2.00000000</i>
   <i name="ENCUTGWSOFT">     -2.00000000</i>
   <i name="ENCUTLF">     -1.00000000</i>
   <i type="int" name="LMAXMP2">    -1</i>
   <i name="SCISSOR">      0.00000000</i>
   <i type="int" name="NOMEGA">     0</i>
   <i type="int" name="NOMEGAR">     0</i>
   <i type="int" name="NBANDSGW">    -1</i>
   <i type="int" name="NBANDSO">    -1</i>
   <i type="int" name="NBANDSV">    -1</i>
   <i name="OPTEMAX">      0.00000000</i>
   <i type="int" name="NELM">     1</i>
   <i type="int" name="DIM">     3</i>
   <i type="int" name="ANTIRES">     0</i>
   <i name="OMEGAMAX">    -30.00000000</i>
   <i name="OMEGATL">   -200.00000000</i>
   <i type="int" name="OMEGAGRID">     0</i>
   <i name="CSHIFT">     -0.10000000</i>
   <i type="logical" name="SELFENERGY"> F  </i>
   <i type="logical" name="LSPECTRAL"> F  </i>
   <i type="logical" name="ODDONLYGW"> F  </i>
   <i type="logical" name="EVENONLYGW"> F  </i>
   <i type="int" name="NKREDLFX">     1</i>
   <i type="int" name="NKREDLFY">     1</i>
   <i type="int" name="NKREDLFZ">     1</i>
   <i type="int" name="MAXMEM">  1800</i>
   <i type="int" name="TELESCOPE">     0</i>
  </separator>
 </parameters>
 <atominfo>
  <atoms>       5 </atoms>
  <types>       2 </types>
  <array name="atoms" >
   <dimension dim="1">ion</dimension>
   <field type="string">element</field>
   <field type="int">atomtype</field>
   <set>
    <rc><c>H </c><c>   1</c></rc>
    <rc><c>H </c><c>   1</c></rc>
    <rc><c>H </c><c>   1</c></rc>
    <rc><c>H </c><c>   1</c></rc>
    <rc><c>C </c><c>   2</c></rc>
   </set>
  </array>
  <array name="atomtypes" >
   <dimension dim="1">type</dimension>
   <field type="int">atomspertype</field>
   <field type="string">element</field>
   <field>mass</field>
   <field>valence</field>
   <field type="string">pseudopotential</field>
   <set>
    <rc><c>   4</c><c>H </c><c>      1.00000000</c><c>      1.00000000</c><c> PAW_PBE H 15Jun2001                    </c></rc>
    <rc><c>   1</c><c>C </c><c>     12.01100000</c><c>      4.00000000</c><c> PAW_PBE C 08Apr2002                    </c></rc>
   </set>
  </array>
 </atominfo>
 <structure name="initialpos" >
  <crystal>
   <varray name="basis" >
    <v>       8.00000000       0.00000000       0.00000000 </v>
    <v>       0.00000000       8.00000000       0.00000000 </v>
    <v>       0.00000000       0.00000000       8.00000000 </v>
   </varray>
   <i name="volume">    512.00000000 </i>
   <varray name="rec_basis" >
    <v>       0.12500000       0.00000000       0.00000000 </v>
    <v>       0.00000000       0.12500000       0.00000000 </v>
    <v>       0.00000000       0.00000000       0.12500000 </v>
   </varray>
  </crystal>
  <varray name="positions" >
   <v>       0.07863975       0.07863975       0.07863975 </v>
   <v>       0.92136025       0.92136025       0.07863975 </v>
   <v>       0.07863975       0.92136025       0.92136025 </v>
   <v>       0.92136025       0.07863975       0.92136025 </v>
   <v>       0.00000000       0.00000000       0.00000000 </v>
  </varray>
 </structure>
 <calculation>
  <scstep>
   <time name="dav">    0.37    0.37</time>
   <time name="total">    1.33    1.37</time>
   <energy>
    <i name="alphaZ">      0.47054448 </i>
    <i name="ewald">     98.76290623 </i>
    <i name="hartreedc">   -215.08095114 </i>
    <i name="XCdc">     22.64688920 </i>
    <i name="pawpsdc">     40.95674594 </i>
    <i name="pawaedc">    -42.14325651 </i>
    <i name="eentropy">     -0.00000005 </i>
    <i name="bandstr">    -60.04852382 </i>
    <i name="atom">    197.07996934 </i>
    <i name="e_fr_energy">     42.64432367 </i>
    <i name="e_wo_entrp">     42.64432372 </i>
    <i name="e_0_energy">     42.64432369 </i>
   </energy>
  </scstep>
  <scstep>
   <time name="dav">    0.36    0.36</time>
   <time name="total">    0.36    0.43</time>
   <energy>
    <i name="e_fr_energy">     -8.91353922 </i>
    <i name="e_wo_entrp">     -8.91353922 </i>
    <i name="e_0_energy">     -8.91353922 </i>
   </energy>
  </scstep>
  <scstep>
   <time name="dav">    0.36    0.36</time>
   <time name="total">    0.36    0.37</time>
   <energy>
    <i name="e_fr_energy">    -26.49577711 </i>
    <i name="e_wo_entrp">    -26.49577711 </i>
    <i name="e_0_energy">    -26.49577711 </i>
   </energy>
  </scstep>
  <scstep>
   <time name="dav">    0.74    0.74</time>
   <time name="total">    0.74    0.77</time>
   <energy>
    <i name="e_fr_energy">    -27.68479638 </i>
    <i name="e_wo_entrp">    -27.68479638 </i>
    <i name="e_0_energy">    -27.68479638 </i>
   </energy>
  </scstep>
  <scstep>
   <time name="dav">    0.73    0.73</time>
   <time name="total">    0.93    0.94</time>
   <energy>
    <i name="e_fr_energy">    -27.68553604 </i>
    <i name="e_wo_entrp">    -27.68553604 </i>
    <i name="e_0_energy">    -27.68553604 </i>
   </energy>
  </scstep>
  <scstep>
   <time name="dav">    0.57    0.57</time>
   <time name="total">    1.94    1.95</time>
   <energy>
    <i name="e_fr_energy">    -24.68869012 </i>
    <i name="e_wo_entrp">    -24.68869012 </i>
    <i name="e_0_energy">    -24.68869012 </i>
   </energy>
  </scstep>
  <scstep>
   <time name="dav">    0.72    0.72</time>
   <time name="total">    2.08    2.09</time>
   <energy>
    <i name="e_fr_energy">    -24.18482413 </i>
    <i name="e_wo_entrp">    -24.18482413 </i>
    <i name="e_0_energy">    -24.18482413 </i>
   </energy>
  </scstep>
  <scstep>
   <time name="dav">    0.57    0.57</time>
   <time name="total">    1.92    1.97</time>
   <energy>
    <i name="e_fr_energy">    -24.01928483 </i>
    <i name="e_wo_entrp">    -24.01928483 </i>
    <i name="e_0_energy">    -24.01928483 </i>
   </energy>
  </scstep>
  <scstep>
   <time name="dav">    0.41    0.42</time>
   <time name="total">    1.77    1.79</time>
   <energy>
    <i name="e_fr_energy">    -24.01968387 </i>
    <i name="e_wo_entrp">    -24.01968387 </i>
    <i name="e_0_energy">    -24.01968387 </i>
   </energy>
  </scstep>
  <scstep>
   <time name="dav">    0.42    0.42</time>
   <time name="total">    1.76    1.79</time>
   <energy>
    <i name="e_fr_energy">    -24.01704405 </i>
    <i name="e_wo_entrp">    -24.01704405 </i>
    <i name="e_0_energy">    -24.01704405 </i>
   </energy>
  </scstep>
  <scstep>
   <time name="dav">    0.42    0.42</time>
   <time name="total">    1.72    1.73</time>
   <energy>
    <i name="e_fr_energy">    -24.02464825 </i>
    <i name="e_wo_entrp">    -24.02464825 </i>
    <i name="e_0_energy">    -24.02464825 </i>
   </energy>
  </scstep>
  <scstep>
   <time name="dav">    0.41    0.42</time>
   <time name="total">    1.72    1.88</time>
   <energy>
    <i name="e_fr_energy">    -24.02662275 </i>
    <i name="e_wo_entrp">    -24.02662275 </i>
    <i name="e_0_energy">    -24.02662275 </i>
   </energy>
  </scstep>
  <scstep>
   <time name="dav">    0.42    0.42</time>
   <time name="total">    1.72    1.95</time>
   <energy>
    <i name="e_fr_energy">    -24.02820318 </i>
    <i name="e_wo_entrp">    -24.02820318 </i>
    <i name="e_0_energy">    -24.02820318 </i>
   </energy>
  </scstep>
  <scstep>
   <time name="dav">    0.57    0.57</time>
   <time name="total">    1.68    1.69</time>
   <energy>
    <i name="alphaZ">      0.47054448 </i>
    <i name="ewald">     98.76290623 </i>
    <i name="hartreedc">   -255.65023839 </i>
    <i name="XCdc">     25.43959832 </i>
    <i name="pawpsdc">     91.12484716 </i>
    <i name="pawaedc">    -92.53795645 </i>
    <i name="eentropy">      0.00000000 </i>
    <i name="bandstr">    -88.71789180 </i>
    <i name="atom">    197.07996934 </i>
    <i name="e_fr_energy">    -24.02822111 </i>
    <i name="e_wo_entrp">    -24.02822111 </i>
    <i name="e_0_energy">    -24.02822111 </i>
   </energy>
  </scstep>
  <parameters_embedded>
   <separator name="dft+d2" >
    <i type="logical" name="LVDW"> F  </i>
   </separator>
  </parameters_embedded>
  <structure>
   <crystal>
    <varray name="basis" >
     <v>       8.00000000       0.00000000       0.00000000 </v>
     <v>       0.00000000       8.00000000       0.00000000 </v>
     <v>       0.00000000       0.00000000       8.00000000 </v>
    </varray>
    <i name="volume">    512.00000000 </i>
    <varray name="rec_basis" >
     <v>       0.12500000       0.00000000       0.00000000 </v>
     <v>       0.00000000       0.12500000       0.00000000 </v>
     <v>       0.00000000       0.00000000       0.12500000 </v>
    </varray>
   </crystal>
   <varray name="positions" >
    <v>       0.07863975       0.07863975       0.07863975 </v>
    <v>       0.92136025       0.92136025       0.07863975 </v>
    <v>       0.07863975       0.92136025       0.92136025 </v>
    <v>       0.92136025       0.07863975       0.92136025 </v>
    <v>       0.00000000       0.00000000       0.00000000 </v>
   </varray>
  </structure>
  <varray name="forces" >
   <v>       0.12536537       0.12536537       0.12536537 </v>
   <v>      -0.12536537      -0.12536537       0.12536537 </v>
   <v>       0.12536537      -0.12536537      -0.12536537 </v>
   <v>      -0.12536537       0.12536537      -0.12536537 </v>
   <v>       0.00000000       0.00000000       0.00000000 </v>
  </varray>
  <varray name="stress" >
   <v>       0.53043831       0.00000000       0.00000000 </v>
   <v>       0.00000000       0.53043831       0.00000000 </v>
   <v>       0.00000000       0.00000000       0.53043831 </v>
  </varray>
  <energy>
   <i name="e_fr_energy">    -24.02822111 </i>
   <i name="e_wo_entrp">    -24.02822111 </i>
   <i name="e_0_energy">      0.00000000 </i>
  </energy>
  <time name="totalsc">   23.40   25.06</time>
 </calculation>
 <calculation>
  <scstep>
   <time name="dav">    0.39    0.40</time>
   <time name="total">    1.63    1.64</time>
   <energy>
    <i name="alphaZ">      0.47054448 </i>
    <i name="ewald">     96.32887765 </i>
    <i name="hartreedc">   -254.24167343 </i>
    <i name="XCdc">     25.36708899 </i>
    <i name="pawpsdc">     91.11211365 </i>
    <i name="pawaedc">    -92.52503957 </i>
    <i name="eentropy">      0.00000000 </i>
    <i name="bandstr">    -87.62428157 </i>
    <i name="atom">    197.07996934 </i>
    <i name="e_fr_energy">    -24.03240044 </i>
    <i name="e_wo_entrp">    -24.03240044 </i>
    <i name="e_0_energy">    -24.03240044 </i>
   </energy>
  </scstep>
  <scstep>
   <time name="dav">    0.54    0.54</time>
   <time name="total">    1.73    1.76</time>
   <energy>
    <i name="e_fr_energy">    -24.03025662 </i>
    <i name="e_wo_entrp">    -24.03025662 </i>
    <i name="e_0_energy">    -24.03025662 </i>
   </energy>
  </scstep>
  <scstep>
   <time name="dav">    0.54    0.54</time>
   <time name="total">    1.71    1.72</time>
   <energy>
    <i name="e_fr_energy">    -24.03007268 </i>
    <i name="e_wo_entrp">    -24.03007268 </i>
    <i name="e_0_energy">    -24.03007268 </i>
   </energy>
  </scstep>
  <scstep>
   <time name="dav">    0.43    0.43</time>
   <time name="total">    1.44    1.52</time>
   <energy>
    <i name="alphaZ">      0.47054448 </i>
    <i name="ewald">     96.32887765 </i>
    <i name="hartreedc">   -253.48766002 </i>
    <i name="XCdc">     25.32404300 </i>
    <i name="pawpsdc">     89.10237406 </i>
    <i name="pawaedc">    -90.50441763 </i>
    <i name="eentropy">      0.00000000 </i>
    <i name="bandstr">    -88.34380283 </i>
    <i name="atom">    197.07996934 </i>
    <i name="e_fr_energy">    -24.03007195 </i>
    <i name="e_wo_entrp">    -24.03007195 </i>
    <i name="e_0_energy">    -24.03007195 </i>
   </energy>
  </scstep>
  <structure>
   <crystal>
    <varray name="basis" >
     <v>       8.00000000       0.00000000       0.00000000 </v>
     <v>       0.00000000       8.00000000       0.00000000 </v>
     <v>       0.00000000       0.00000000       8.00000000 </v>
    </varray>
    <i name="volume">    512.00000000 </i>
    <varray name="rec_basis" >
     <v>       0.12500000       0.00000000       0.00000000 </v>
     <v>       0.00000000       0.12500000       0.00000000 </v>
     <v>       0.00000000       0.00000000       0.12500000 </v>
    </varray>
   </crystal>
   <varray name="positions" >
    <v>       0.07939574       0.07939574       0.07939574 </v>
    <v>       0.92060426       0.92060426       0.07939574 </v>
    <v>       0.07939574       0.92060426       0.92060426 </v>
    <v>       0.92060426       0.07939574       0.92060426 </v>
    <v>       0.00000000       0.00000000       0.00000000 </v>
   </varray>
  </structure>
  <varray name="forces" >
   <v>      -0.08150885      -0.08150885      -0.08150885 </v>
   <v>       0.08150885       0.08150885      -0.08150885 </v>
   <v>      -0.08150885       0.08150885       0.08150885 </v>
   <v>       0.08150885      -0.08150885       0.08150885 </v>
   <v>       0.00000000       0.00000000       0.00000000 </v>
  </varray>
  <varray name="stress" >
   <v>      -0.88483732       0.00000000       0.00000000 </v>
   <v>       0.00000000      -0.88483732       0.00000000 </v>
   <v>       0.00000000       0.00000000      -0.88483732 </v>
  </varray>
  <energy>
   <i name="e_fr_energy">    -24.03007195 </i>
   <i name="e_wo_entrp">    -24.03007195 </i>
   <i name="e_0_energy">      0.00000000 </i>
  </energy>
  <time name="totalsc">    8.86    9.56</time>
 </calculation>
 <calculation>
  <scstep>
   <time name="dav">    0.39    0.39</time>
   <time name="total">    1.53    1.53</time>
   <energy>
    <i name="alphaZ">      0.47054448 </i>
    <i name="ewald">     97.28219663 </i>
    <i name="hartreedc">   -253.99340363 </i>
    <i name="XCdc">     25.34952557 </i>
    <i name="pawpsdc">     89.00509429 </i>
    <i name="pawaedc">    -90.40750669 </i>
    <i name="eentropy">      0.00000000 </i>
    <i name="bandstr">    -88.81817670 </i>
    <i name="atom">    197.07996934 </i>
    <i name="e_fr_energy">    -24.03175670 </i>
    <i name="e_wo_entrp">    -24.03175670 </i>
    <i name="e_0_energy">    -24.03175670 </i>
   </energy>
  </scstep>
  <scstep>
   <time name="dav">    0.39    0.39</time>
   <time name="total">    1.57    1.62</time>
   <energy>
    <i name="e_fr_energy">    -24.03113305 </i>
    <i name="e_wo_entrp">    -24.03113305 </i>
    <i name="e_0_energy">    -24.03113305 </i>
   </energy>
  </scstep>
  <scstep>
   <time name="dav">    0.39    0.39</time>
   <time name="total">    1.42    1.43</time>
   <energy>
    <i name="alphaZ">      0.47054448 </i>
    <i name="ewald">     97.28219663 </i>
    <i name="hartreedc">   -254.37055376 </i>
    <i name="XCdc">     25.36962458 </i>
    <i name="pawpsdc">     89.75163929 </i>
    <i name="pawaedc">    -91.15907173 </i>
    <i name="eentropy">      0.00000000 </i>
    <i name="bandstr">    -88.45545469 </i>
    <i name="atom">    197.07996934 </i>
    <i name="e_fr_energy">    -24.03110587 </i>
    <i name="e_wo_entrp">    -24.03110587 </i>
    <i name="e_0_energy">    -24.03110587 </i>
   </energy>
  </scstep>
  <structure>
   <crystal>
    <varray name="basis" >
     <v>       8.00000000       0.00000000       0.00000000 </v>
     <v>       0.00000000       8.00000000       0.00000000 </v>
     <v>       0.00000000       0.00000000       8.00000000 </v>
    </varray>
    <i name="volume">    512.00000000 </i>
    <varray name="rec_basis" >
     <v>       0.12500000       0.00000000       0.00000000 </v>
     <v>       0.00000000       0.12500000       0.00000000 </v>
     <v>       0.00000000       0.00000000       0.12500000 </v>
    </varray>
   </crystal>
   <varray name="positions" >
    <v>       0.07909788       0.07909788       0.07909788 </v>
    <v>       0.92090212       0.92090212       0.07909788 </v>
    <v>       0.07909788       0.92090212       0.92090212 </v>
    <v>       0.92090212       0.07909788       0.92090212 </v>
    <v>       0.00000000       0.00000000       0.00000000 </v>
   </varray>
  </structure>
  <varray name="forces" >
   <v>       0.00739745       0.00739745       0.00739745 </v>
   <v>      -0.00739745      -0.00739745       0.00739745 </v>
   <v>       0.00739745      -0.00739745      -0.00739745 </v>
   <v>      -0.00739745       0.00739745      -0.00739745 </v>
   <v>       0.00000000       0.00000000       0.00000000 </v>
  </varray>
  <varray name="stress" >
   <v>      -0.47879912       0.00000000       0.00000000 </v>
   <v>       0.00000000      -0.47879912       0.00000000 </v>
   <v>       0.00000000       0.00000000      -0.47879912 </v>
  </varray>
  <energy>
   <i name="e_fr_energy">    -24.03110587 </i>
   <i name="e_wo_entrp">    -24.03110587 </i>
   <i name="e_0_energy">      0.00000000 </i>
  </energy>
  <time name="totalsc">    6.53    7.00</time>
  <eigenvalues>
   <array>
    <dimension dim="1">band</dimension>
    <dimension dim="2">kpoint</dimension>
    <dimension dim="3">spin</dimension>
    <field>eigene</field>
    <field>occ</field>
    <set>
     <set comment="spin 1">
      <set comment="kpoint 1">
       <r>  -16.7527    1.0000 </r>
       <r>   -9.1583    1.0000 </r>
       <r>   -9.1583    1.0000 </r>
       <r>   -9.1583    1.0000 </r>
       <r>   -0.6327    0.0000 </r>
       <r>    1.7173    0.0000 </r>
       <r>    1.7173    0.0000 </r>
       <r>    1.7173    0.0000 </r>
      </set>
     </set>
    </set>
   </array>
  </eigenvalues>
  <separator name="orbital magnetization" >
   <v name="MAGDIPOLOUT">      0.00000000      0.00000000      0.00000000</v>
  </separator>
  <dos>
   <i name="efermi">     -8.19163089 </i>
   <total>
    <array>
     <dimension dim="1">gridpoints</dimension>
     <dimension dim="2">spin</dimension>
     <field>energy</field>
     <field>total</field>
     <field>integrated</field>
     <set>
      <set comment="spin 1">
       <r>   -18.7527     0.0000     0.0000 </r>
       <r>   -18.6778     0.0000     0.0000 </r>
       <r>   -18.6029     0.0000     0.0000 </r>
       <r>   -18.5280     0.0000     0.0000 </r>
       <r>   -18.4531     0.0000     0.0000 </r>
       <r>   -18.3782     0.0000     0.0000 </r>
       <r>   -18.3033     0.0000     0.0000 </r>
       <r>   -18.2284     0.0000     0.0000 </r>
       <r>   -18.1535     0.0000     0.0000 </r>
       <r>   -18.0786     0.0000     0.0000 </r>
       <r>   -18.0037     0.0000     0.0000 </r>
       <r>   -17.9288     0.0000     0.0000 </r>
       <r>   -17.8539     0.0000     0.0000 </r>
       <r>   -17.7790     0.0000     0.0000 </r>
       <r>   -17.7041     0.0000     0.0000 </r>
       <r>   -17.6292     0.0000     0.0000 </r>
       <r>   -17.5543     0.0000     0.0000 </r>
       <r>   -17.4794     0.0000     0.0000 </r>
       <r>   -17.4045     0.0001     0.0000 </r>
       <r>   -17.3296     0.0005     0.0000 </r>
       <r>   -17.2547     0.0045     0.0004 </r>
       <r>   -17.1798     0.0286     0.0025 </r>
       <r>   -17.1049     0.1366     0.0128 </r>
       <r>   -17.0300     0.4959     0.0499 </r>
       <r>   -16.9551     1.3682     0.1524 </r>
       <r>   -16.8802     2.8694     0.3673 </r>
       <r>   -16.8053     4.5748     0.7099 </r>
       <r>   -16.7304     5.5455     1.1253 </r>
       <r>   -16.6555     5.1110     1.5081 </r>
       <r>   -16.5806     3.5815     1.7764 </r>
       <r>   -16.5057     1.9080     1.9193 </r>
       <r>   -16.4308     0.7727     1.9772 </r>
       <r>   -16.3559     0.2379     1.9950 </r>
       <r>   -16.2810     0.0556     1.9991 </r>
       <r>   -16.2061     0.0099     1.9999 </r>
       <r>   -16.1312     0.0013     2.0000 </r>
       <r>   -16.0563     0.0001     2.0000 </r>
       <r>   -15.9814     0.0000     2.0000 </r>
       <r>   -15.9065     0.0000     2.0000 </r>
       <r>   -15.8316     0.0000     2.0000 </r>
       <r>   -15.7567     0.0000     2.0000 </r>
       <r>   -15.6818     0.0000     2.0000 </r>
       <r>   -15.6069     0.0000     2.0000 </r>
       <r>   -15.5320     0.0000     2.0000 </r>
       <r>   -15.4571     0.0000     2.0000 </r>
       <r>   -15.3822     0.0000     2.0000 </r>
       <r>   -15.3073     0.0000     2.0000 </r>
       <r>   -15.2324     0.0000     2.0000 </r>
       <r>   -15.1575     0.0000     2.0000 </r>
       <r>   -15.0826     0.0000     2.0000 </r>
       <r>   -15.0077     0.0000     2.0000 </r>
       <r>   -14.9328     0.0000     2.0000 </r>
       <r>   -14.8579     0.0000     2.0000 </r>
       <r>   -14.7830     0.0000     2.0000 </r>
       <r>   -14.7081     0.0000     2.0000 </r>
       <r>   -14.6332     0.0000     2.0000 </r>
       <r>   -14.5583     0.0000     2.0000 </r>
       <r>   -14.4834     0.0000     2.0000 </r>
       <r>   -14.4085     0.0000     2.0000 </r>
       <r>   -14.3336     0.0000     2.0000 </r>
       <r>   -14.2587     0.0000     2.0000 </r>
       <r>   -14.1838     0.0000     2.0000 </r>
       <r>   -14.1089     0.0000     2.0000 </r>
       <r>   -14.0340     0.0000     2.0000 </r>
       <r>   -13.9591     0.0000     2.0000 </r>
       <r>   -13.8842     0.0000     2.0000 </r>
       <r>   -13.8093     0.0000     2.0000 </r>
       <r>   -13.7344     0.0000     2.0000 </r>
       <r>   -13.6595     0.0000     2.0000 </r>
       <r>   -13.5846     0.0000     2.0000 </r>
       <r>   -13.5097     0.0000     2.0000 </r>
       <r>   -13.4348     0.0000     2.0000 </r>
       <r>   -13.3599     0.0000     2.0000 </r>
       <r>   -13.2850     0.0000     2.0000 </r>
       <r>   -13.2101     0.0000     2.0000 </r>
       <r>   -13.1352     0.0000     2.0000 </r>
       <r>   -13.0603     0.0000     2.0000 </r>
       <r>   -12.9854     0.0000     2.0000 </r>
       <r>   -12.9105     0.0000     2.0000 </r>
       <r>   -12.8356     0.0000     2.0000 </r>
       <r>   -12.7607     0.0000     2.0000 </r>
       <r>   -12.6858     0.0000     2.0000 </r>
       <r>   -12.6109     0.0000     2.0000 </r>
       <r>   -12.5360     0.0000     2.0000 </r>
       <r>   -12.4611     0.0000     2.0000 </r>
       <r>   -12.3862     0.0000     2.0000 </r>
       <r>   -12.3113     0.0000     2.0000 </r>
       <r>   -12.2364     0.0000     2.0000 </r>
       <r>   -12.1615     0.0000     2.0000 </r>
       <r>   -12.0866     0.0000     2.0000 </r>
       <r>   -12.0117     0.0000     2.0000 </r>
       <r>   -11.9368     0.0000     2.0000 </r>
       <r>   -11.8619     0.0000     2.0000 </r>
       <r>   -11.7870     0.0000     2.0000 </r>
       <r>   -11.7121     0.0000     2.0000 </r>
       <r>   -11.6372     0.0000     2.0000 </r>
       <r>   -11.5623     0.0000     2.0000 </r>
       <r>   -11.4874     0.0000     2.0000 </r>
       <r>   -11.4125     0.0000     2.0000 </r>
       <r>   -11.3376     0.0000     2.0000 </r>
       <r>   -11.2627     0.0000     2.0000 </r>
       <r>   -11.1878     0.0000     2.0000 </r>
       <r>   -11.1129     0.0000     2.0000 </r>
       <r>   -11.0380     0.0000     2.0000 </r>
       <r>   -10.9631     0.0000     2.0000 </r>
       <r>   -10.8882     0.0000     2.0000 </r>
       <r>   -10.8133     0.0000     2.0000 </r>
       <r>   -10.7384     0.0000     2.0000 </r>
       <r>   -10.6635     0.0000     2.0000 </r>
       <r>   -10.5886     0.0000     2.0000 </r>
       <r>   -10.5137     0.0000     2.0000 </r>
       <r>   -10.4388     0.0000     2.0000 </r>
       <r>   -10.3639     0.0000     2.0000 </r>
       <r>   -10.2890     0.0000     2.0000 </r>
       <r>   -10.2141     0.0000     2.0000 </r>
       <r>   -10.1392     0.0000     2.0000 </r>
       <r>   -10.0643     0.0000     2.0000 </r>
       <r>    -9.9894     0.0000     2.0000 </r>
       <r>    -9.9145     0.0000     2.0000 </r>
       <r>    -9.8396     0.0001     2.0000 </r>
       <r>    -9.7647     0.0007     2.0001 </r>
       <r>    -9.6898     0.0061     2.0005 </r>
       <r>    -9.6149     0.0430     2.0037 </r>
       <r>    -9.5400     0.2290     2.0209 </r>
       <r>    -9.4651     0.9262     2.0903 </r>
       <r>    -9.3902     2.8463     2.3035 </r>
       <r>    -9.3153     6.6484     2.8014 </r>
       <r>    -9.2404    11.8053     3.6856 </r>
       <r>    -9.1655    15.9373     4.8793 </r>
       <r>    -9.0906    16.3586     6.1046 </r>
       <r>    -9.0157    12.7666     7.0608 </r>
       <r>    -8.9408     7.5750     7.6282 </r>
       <r>    -8.8659     3.4168     7.8841 </r>
       <r>    -8.7910     1.1715     7.9718 </r>
       <r>    -8.7161     0.3053     7.9947 </r>
       <r>    -8.6412     0.0604     7.9992 </r>
       <r>    -8.5663     0.0091     7.9999 </r>
       <r>    -8.4914     0.0010     8.0000 </r>
       <r>    -8.4165     0.0001     8.0000 </r>
       <r>    -8.3416     0.0000     8.0000 </r>
       <r>    -8.2667     0.0000     8.0000 </r>
       <r>    -8.1918     0.0000     8.0000 </r>
       <r>    -8.1169     0.0000     8.0000 </r>
       <r>    -8.0420     0.0000     8.0000 </r>
       <r>    -7.9671     0.0000     8.0000 </r>
       <r>    -7.8922     0.0000     8.0000 </r>
       <r>    -7.8173     0.0000     8.0000 </r>
       <r>    -7.7424     0.0000     8.0000 </r>
       <r>    -7.6675     0.0000     8.0000 </r>
       <r>    -7.5926     0.0000     8.0000 </r>
       <r>    -7.5177     0.0000     8.0000 </r>
       <r>    -7.4428     0.0000     8.0000 </r>
       <r>    -7.3679     0.0000     8.0000 </r>
       <r>    -7.2930     0.0000     8.0000 </r>
       <r>    -7.2181     0.0000     8.0000 </r>
       <r>    -7.1432     0.0000     8.0000 </r>
       <r>    -7.0683     0.0000     8.0000 </r>
       <r>    -6.9934     0.0000     8.0000 </r>
       <r>    -6.9185     0.0000     8.0000 </r>
       <r>    -6.8436     0.0000     8.0000 </r>
       <r>    -6.7687     0.0000     8.0000 </r>
       <r>    -6.6938     0.0000     8.0000 </r>
       <r>    -6.6189     0.0000     8.0000 </r>
       <r>    -6.5440     0.0000     8.0000 </r>
       <r>    -6.4691     0.0000     8.0000 </r>
       <r>    -6.3942     0.0000     8.0000 </r>
       <r>    -6.3193     0.0000     8.0000 </r>
       <r>    -6.2444     0.0000     8.0000 </r>
       <r>    -6.1695     0.0000     8.0000 </r>
       <r>    -6.0946     0.0000     8.0000 </r>
       <r>    -6.0197     0.0000     8.0000 </r>
       <r>    -5.9448     0.0000     8.0000 </r>
       <r>    -5.8699     0.0000     8.0000 </r>
       <r>    -5.7950     0.0000     8.0000 </r>
       <r>    -5.7201     0.0000     8.0000 </r>
       <r>    -5.6452     0.0000     8.0000 </r>
       <r>    -5.5703     0.0000     8.0000 </r>
       <r>    -5.4954     0.0000     8.0000 </r>
       <r>    -5.4205     0.0000     8.0000 </r>
       <r>    -5.3456     0.0000     8.0000 </r>
       <r>    -5.2707     0.0000     8.0000 </r>
       <r>    -5.1958     0.0000     8.0000 </r>
       <r>    -5.1209     0.0000     8.0000 </r>
       <r>    -5.0460     0.0000     8.0000 </r>
       <r>    -4.9711     0.0000     8.0000 </r>
       <r>    -4.8962     0.0000     8.0000 </r>
       <r>    -4.8213     0.0000     8.0000 </r>
       <r>    -4.7464     0.0000     8.0000 </r>
       <r>    -4.6715     0.0000     8.0000 </r>
       <r>    -4.5966     0.0000     8.0000 </r>
       <r>    -4.5217     0.0000     8.0000 </r>
       <r>    -4.4468     0.0000     8.0000 </r>
       <r>    -4.3719     0.0000     8.0000 </r>
       <r>    -4.2970     0.0000     8.0000 </r>
       <r>    -4.2221     0.0000     8.0000 </r>
       <r>    -4.1472     0.0000     8.0000 </r>
       <r>    -4.0723     0.0000     8.0000 </r>
       <r>    -3.9974     0.0000     8.0000 </r>
       <r>    -3.9225     0.0000     8.0000 </r>
       <r>    -3.8476     0.0000     8.0000 </r>
       <r>    -3.7727     0.0000     8.0000 </r>
       <r>    -3.6978     0.0000     8.0000 </r>
       <r>    -3.6229     0.0000     8.0000 </r>
       <r>    -3.5480     0.0000     8.0000 </r>
       <r>    -3.4731     0.0000     8.0000 </r>
       <r>    -3.3982     0.0000     8.0000 </r>
       <r>    -3.3233     0.0000     8.0000 </r>
       <r>    -3.2484     0.0000     8.0000 </r>
       <r>    -3.1735     0.0000     8.0000 </r>
       <r>    -3.0986     0.0000     8.0000 </r>
       <r>    -3.0237     0.0000     8.0000 </r>
       <r>    -2.9488     0.0000     8.0000 </r>
       <r>    -2.8739     0.0000     8.0000 </r>
       <r>    -2.7990     0.0000     8.0000 </r>
       <r>    -2.7241     0.0000     8.0000 </r>
       <r>    -2.6492     0.0000     8.0000 </r>
       <r>    -2.5743     0.0000     8.0000 </r>
       <r>    -2.4994     0.0000     8.0000 </r>
       <r>    -2.4245     0.0000     8.0000 </r>
       <r>    -2.3496     0.0000     8.0000 </r>
       <r>    -2.2747     0.0000     8.0000 </r>
       <r>    -2.1998     0.0000     8.0000 </r>
       <r>    -2.1249     0.0000     8.0000 </r>
       <r>    -2.0500     0.0000     8.0000 </r>
       <r>    -1.9751     0.0000     8.0000 </r>
       <r>    -1.9002     0.0000     8.0000 </r>
       <r>    -1.8253     0.0000     8.0000 </r>
       <r>    -1.7504     0.0000     8.0000 </r>
       <r>    -1.6755     0.0000     8.0000 </r>
       <r>    -1.6006     0.0000     8.0000 </r>
       <r>    -1.5257     0.0000     8.0000 </r>
       <r>    -1.4508     0.0000     8.0000 </r>
       <r>    -1.3759     0.0000     8.0000 </r>
       <r>    -1.3010     0.0000     8.0000 </r>
       <r>    -1.2261     0.0003     8.0000 </r>
       <r>    -1.1512     0.0029     8.0002 </r>
       <r>    -1.0763     0.0195     8.0017 </r>
       <r>    -1.0014     0.0992     8.0091 </r>
       <r>    -0.9265     0.3824     8.0378 </r>
       <r>    -0.8516     1.1207     8.1217 </r>
       <r>    -0.7767     2.4963     8.3087 </r>
       <r>    -0.7018     4.2271     8.6253 </r>
       <r>    -0.6269     5.4422     9.0329 </r>
       <r>    -0.5520     5.3272     9.4319 </r>
       <r>    -0.4771     3.9648     9.7289 </r>
       <r>    -0.4022     2.2435     9.8969 </r>
       <r>    -0.3273     0.9650     9.9692 </r>
       <r>    -0.2524     0.3155     9.9928 </r>
       <r>    -0.1775     0.0784     9.9987 </r>
       <r>    -0.1026     0.0148     9.9998 </r>
       <r>    -0.0277     0.0021    10.0000 </r>
       <r>     0.0472     0.0002    10.0000 </r>
       <r>     0.1221     0.0000    10.0000 </r>
       <r>     0.1970     0.0000    10.0000 </r>
       <r>     0.2719     0.0000    10.0000 </r>
       <r>     0.3468     0.0000    10.0000 </r>
       <r>     0.4217     0.0000    10.0000 </r>
       <r>     0.4966     0.0000    10.0000 </r>
       <r>     0.5715     0.0000    10.0000 </r>
       <r>     0.6464     0.0000    10.0000 </r>
       <r>     0.7213     0.0000    10.0000 </r>
       <r>     0.7962     0.0000    10.0000 </r>
       <r>     0.8711     0.0000    10.0000 </r>
       <r>     0.9460     0.0000    10.0000 </r>
       <r>     1.0209     0.0000    10.0000 </r>
       <r>     1.0958     0.0004    10.0000 </r>
       <r>     1.1707     0.0040    10.0003 </r>
       <r>     1.2456     0.0297    10.0026 </r>
       <r>     1.3205     0.1669    10.0151 </r>
       <r>     1.3954     0.7136    10.0685 </r>
       <r>     1.4703     2.3182    10.2421 </r>
       <r>     1.5452     5.7242    10.6709 </r>
       <r>     1.6201    10.7446    11.4756 </r>
       <r>     1.6950    15.3330    12.6241 </r>
       <r>     1.7699    16.6364    13.8702 </r>
       <r>     1.8448    13.7243    14.8981 </r>
       <r>     1.9197     8.6081    15.5429 </r>
       <r>     1.9946     4.1046    15.8503 </r>
       <r>     2.0695     1.4877    15.9617 </r>
       <r>     2.1444     0.4098    15.9924 </r>
       <r>     2.2193     0.0858    15.9988 </r>
       <r>     2.2942     0.0136    15.9999 </r>
       <r>     2.3691     0.0016    16.0000 </r>
       <r>     2.4440     0.0002    16.0000 </r>
       <r>     2.5189     0.0000    16.0000 </r>
       <r>     2.5938     0.0000    16.0000 </r>
       <r>     2.6687     0.0000    16.0000 </r>
       <r>     2.7436     0.0000    16.0000 </r>
       <r>     2.8185     0.0000    16.0000 </r>
       <r>     2.8934     0.0000    16.0000 </r>
       <r>     2.9683     0.0000    16.0000 </r>
       <r>     3.0432     0.0000    16.0000 </r>
       <r>     3.1181     0.0000    16.0000 </r>
       <r>     3.1930     0.0000    16.0000 </r>
       <r>     3.2679     0.0000    16.0000 </r>
       <r>     3.3428     0.0000    16.0000 </r>
       <r>     3.4177     0.0000    16.0000 </r>
       <r>     3.4926     0.0000    16.0000 </r>
       <r>     3.5675     0.0000    16.0000 </r>
       <r>     3.6424     0.0000    16.0000 </r>
       <r>     3.7173     0.0000    16.0000 </r>
      </set>
     </set>
    </array>
   </total>
  </dos>
 </calculation>
 <structure name="finalpos" >
  <crystal>
   <varray name="basis" >
    <v>       8.00000000       0.00000000       0.00000000 </v>
    <v>       0.00000000       8.00000000       0.00000000 </v>
    <v>       0.00000000       0.00000000       8.00000000 </v>
   </varray>
   <i name="volume">    512.00000000 </i>
   <varray name="rec_basis" >
    <v>       0.12500000       0.00000000       0.00000000 </v>
    <v>       0.00000000       0.12500000       0.00000000 </v>
    <v>       0.00000000       0.00000000       0.12500000 </v>
   </varray>
  </crystal>
  <varray name="positions" >
   <v>       0.07909788       0.07909788       0.07909788 </v>
   <v>       0.92090212       0.92090212       0.07909788 </v>
   <v>       0.07909788       0.92090212       0.92090212 </v>
   <v>       0.92090212       0.07909788       0.92090212 </v>
   <v>       0.00000000       0.00000000       0.00000000 </v>
  </varray>
 </structure>
</modeling>
