 running on    1 nodes
 distr:  one band on    1 nodes,    1 groups
 vasp.5.2.12 11Nov11 complex                                                    
  
 POSCAR found :  2 types and       5 ions
 LDA part: xc-table for Pade appr. of Perdew
 POSCAR, INCAR and KPOINTS ok, starting setup
 WARNING: small aliasing (wrap around) errors must be expected
 FFT: planning ...(           2 )
 WAVECAR not read
 entering main loop
       N       E                     dE             d eps       ncg     rms          rms(c)
DAV:   1     0.277888143625E+03    0.27789E+03   -0.89895E+03    40   0.929E+02
DAV:   2     0.362707396992E+02   -0.24162E+03   -0.23671E+03    64   0.192E+02
DAV:   3    -0.160071923657E+02   -0.52278E+02   -0.52176E+02    44   0.114E+02
DAV:   4    -0.175601346375E+02   -0.15529E+01   -0.15403E+01    48   0.248E+01
DAV:   5    -0.176145840021E+02   -0.54449E-01   -0.54396E-01    60   0.431E+00    0.447E+00
DAV:   6    -0.173698206663E+02    0.24476E+00   -0.23603E-01    48   0.291E+00    0.253E+00
DAV:   7    -0.172907658878E+02    0.79055E-01   -0.20882E-01    40   0.265E+00    0.443E-01
DAV:   8    -0.172912725559E+02   -0.50667E-03   -0.11785E-02    56   0.723E-01    0.180E-01
DAV:   9    -0.172923511366E+02   -0.10786E-02   -0.11143E-03    40   0.221E-01    0.571E-02
DAV:  10    -0.172934165975E+02   -0.10655E-02   -0.24504E-04    32   0.103E-01    0.166E-02
DAV:  11    -0.172940828781E+02   -0.66628E-03   -0.66814E-05    24   0.528E-02    0.148E-02
DAV:  12    -0.172947722621E+02   -0.68938E-03   -0.83047E-05    24   0.498E-02    0.467E-03
DAV:  13    -0.172948738606E+02   -0.10160E-03   -0.15199E-05    24   0.219E-02    0.266E-03
DAV:  14    -0.172949285712E+02   -0.54711E-04   -0.43626E-06    24   0.125E-02
   1 F= -.17294929E+02 E0= -.17294929E+02  d E =-.172949E+02
 curvature:   0.00 expect dE= 0.000E+00 dE for cont linesearch  0.000E+00
 trial: gam= 0.00000 g(F)=  0.757E-02 g(S)=  0.000E+00 ort = 0.000E+00 (trialstep = 0.100E+01)
 search vector abs. value=  0.757E-02
 bond charge predicted
       N       E                     dE             d eps       ncg     rms          rms(c)
DAV:   1    -0.172954591443E+02   -0.58528E-03   -0.66711E-01    40   0.463E+00    0.140E-01
DAV:   2    -0.172978841492E+02   -0.24250E-02   -0.27875E-02    48   0.120E+00    0.112E-01
DAV:   3    -0.172977723455E+02    0.11180E-03   -0.60750E-04    44   0.181E-01    0.709E-02
DAV:   4    -0.172977309588E+02    0.41387E-04   -0.16169E-04    32   0.836E-02
   2 F= -.17297731E+02 E0= -.17297731E+02  d E =-.280239E-02
 trial-energy change:   -0.002802  1 .order   -0.003005   -0.007575    0.001565
 step:   0.8288(harm=  0.8288)  dis= 0.00457  next Energy=   -17.298068 (dE=-0.314E-02)
 bond charge predicted
       N       E                     dE             d eps       ncg     rms          rms(c)
DAV:   1    -0.172978535417E+02   -0.81196E-04   -0.20264E-02    44   0.823E-01    0.209E-02
DAV:   2    -0.172979298680E+02   -0.76326E-04   -0.92357E-04    48   0.221E-01
   3 F= -.17297930E+02 E0= -.17297930E+02  d E =-.300130E-02
 curvature:  -0.41 expect dE=-0.204E-05 dE for cont linesearch -0.204E-05
 trial: gam= 0.00000 g(F)=  0.492E-05 g(S)=  0.000E+00 ort =-0.193E-03 (trialstep = 0.966E+00)
 search vector abs. value=  0.492E-05
 reached required accuracy - stopping structural energy minimisation
 writing wavefunctions
NPROCS =  1
