   5   5   0   0
  0.1024000E+03  0.8000000E-09  0.8000000E-09  0.8000000E-09  0.5000000E-15
  1.000000000000000E-004
  CAR 
 unknown system                          
      2.18587649    -24.99603621  301     -5.06227963      1.00000000
    -24.996  0.0000E+00  0.0000E+00
    -24.905  0.0000E+00  0.0000E+00
    -24.815  0.0000E+00  0.0000E+00
    -24.724  0.0000E+00  0.0000E+00
    -24.634  0.0000E+00  0.0000E+00
    -24.543  0.0000E+00  0.0000E+00
    -24.452  0.0000E+00  0.0000E+00
    -24.362  0.0000E+00  0.0000E+00
    -24.271  0.0000E+00  0.0000E+00
    -24.181  0.0000E+00  0.0000E+00
    -24.090  0.1140E-13  0.1033E-14
    -23.999  0.1420E-11  0.1297E-12
    -23.909  0.1189E-09  0.1090E-10
    -23.818  0.6642E-08  0.6127E-09
    -23.728  0.2481E-06  0.2309E-07
    -23.637  0.6197E-05  0.5846E-06
    -23.546  0.1036E-03  0.9975E-05
    -23.456  0.1161E-02  0.1152E-03
    -23.365  0.8727E-02  0.9059E-03
    -23.275  0.4401E-01  0.4894E-02
    -23.184  0.1491E+00  0.1840E-01
    -23.093  0.3395E+00  0.4916E-01
    -23.003  0.5197E+00  0.9624E-01
    -22.912  0.5350E+00  0.1447E+00
    -22.821  0.3705E+00  0.1783E+00
    -22.731  0.1725E+00  0.1939E+00
    -22.640  0.5399E-01  0.1988E+00
    -22.550  0.1135E-01  0.1998E+00
    -22.459  0.1602E-02  0.2000E+00
    -22.368  0.1516E-03  0.2000E+00
    -22.278  0.9615E-05  0.2000E+00
    -22.187  0.4083E-06  0.2000E+00
    -22.097  0.1160E-07  0.2000E+00
    -22.006  0.2202E-09  0.2000E+00
    -21.915  0.2793E-11  0.2000E+00
    -21.825  0.2377E-13  0.2000E+00
    -21.734  0.0000E+00  0.2000E+00
    -21.644  0.0000E+00  0.2000E+00
    -21.553  0.0000E+00  0.2000E+00
    -21.462  0.0000E+00  0.2000E+00
    -21.372  0.0000E+00  0.2000E+00
    -21.281  0.0000E+00  0.2000E+00
    -21.191  0.0000E+00  0.2000E+00
    -21.100  0.0000E+00  0.2000E+00
    -21.009  0.3676E-15  0.2000E+00
    -20.919  0.7720E-13  0.2000E+00
    -20.828  0.9036E-11  0.2000E+00
    -20.738  0.7079E-09  0.2000E+00
    -20.647  0.3703E-07  0.2000E+00
    -20.556  0.1295E-05  0.2000E+00
    -20.466  0.3029E-04  0.2000E+00
    -20.375  0.4745E-03  0.2000E+00
    -20.285  0.4980E-02  0.2005E+00
    -20.194  0.3506E-01  0.2037E+00
    -20.103  0.1656E+00  0.2187E+00
    -20.013  0.5258E+00  0.2663E+00
    -19.922  0.1122E+01  0.3680E+00
    -19.831  0.1610E+01  0.5138E+00
    -19.741  0.1553E+01  0.6545E+00
    -19.650  0.1008E+01  0.7458E+00
    -19.560  0.4398E+00  0.7857E+00
    -19.469  0.1290E+00  0.7974E+00
    -19.378  0.2540E-01  0.7997E+00
    -19.288  0.3358E-02  0.8000E+00
    -19.197  0.2977E-03  0.8000E+00
    -19.107  0.1768E-04  0.8000E+00
    -19.016  0.7032E-06  0.8000E+00
    -18.925  0.1870E-07  0.8000E+00
    -18.835  0.3324E-09  0.8000E+00
    -18.744  0.3947E-11  0.8000E+00
    -18.654  0.3088E-13  0.8000E+00
    -18.563  0.0000E+00  0.8000E+00
    -18.472  0.0000E+00  0.8000E+00
    -18.382  0.0000E+00  0.8000E+00
    -18.291  0.0000E+00  0.8000E+00
    -18.201  0.0000E+00  0.8000E+00
    -18.110  0.0000E+00  0.8000E+00
    -18.019  0.0000E+00  0.8000E+00
    -17.929  0.0000E+00  0.8000E+00
    -17.838  0.0000E+00  0.8000E+00
    -17.748  0.0000E+00  0.8000E+00
    -17.657  0.0000E+00  0.8000E+00
    -17.566  0.0000E+00  0.8000E+00
    -17.476  0.0000E+00  0.8000E+00
    -17.385  0.0000E+00  0.8000E+00
    -17.294  0.0000E+00  0.8000E+00
    -17.204  0.0000E+00  0.8000E+00
    -17.113  0.0000E+00  0.8000E+00
    -17.023  0.0000E+00  0.8000E+00
    -16.932  0.0000E+00  0.8000E+00
    -16.841  0.0000E+00  0.8000E+00
    -16.751  0.0000E+00  0.8000E+00
    -16.660  0.0000E+00  0.8000E+00
    -16.570  0.0000E+00  0.8000E+00
    -16.479  0.0000E+00  0.8000E+00
    -16.388  0.0000E+00  0.8000E+00
    -16.298  0.0000E+00  0.8000E+00
    -16.207  0.0000E+00  0.8000E+00
    -16.117  0.0000E+00  0.8000E+00
    -16.026  0.0000E+00  0.8000E+00
    -15.935  0.0000E+00  0.8000E+00
    -15.845  0.0000E+00  0.8000E+00
    -15.754  0.0000E+00  0.8000E+00
    -15.664  0.0000E+00  0.8000E+00
    -15.573  0.0000E+00  0.8000E+00
    -15.482  0.0000E+00  0.8000E+00
    -15.392  0.0000E+00  0.8000E+00
    -15.301  0.3431E-14  0.8000E+00
    -15.211  0.4782E-12  0.8000E+00
    -15.120  0.4396E-10  0.8000E+00
    -15.029  0.2699E-08  0.8000E+00
    -14.939  0.1107E-06  0.8000E+00
    -14.848  0.3037E-05  0.8000E+00
    -14.758  0.5575E-04  0.8000E+00
    -14.667  0.6857E-03  0.8001E+00
    -14.576  0.5655E-02  0.8006E+00
    -14.486  0.3129E-01  0.8034E+00
    -14.395  0.1163E+00  0.8140E+00
    -14.304  0.2904E+00  0.8403E+00
    -14.214  0.4876E+00  0.8844E+00
    -14.123  0.5506E+00  0.9343E+00
    -14.033  0.4181E+00  0.9722E+00
    -13.942  0.2135E+00  0.9916E+00
    -13.851  0.7331E-01  0.9982E+00
    -13.761  0.1691E-01  0.9997E+00
    -13.670  0.2618E-02  0.1000E+01
    -13.580  0.2720E-03  0.1000E+01
    -13.489  0.1894E-04  0.1000E+01
    -13.398  0.8830E-06  0.1000E+01
    -13.308  0.2755E-07  0.1000E+01
    -13.217  0.5745E-09  0.1000E+01
    -13.127  0.8003E-11  0.1000E+01
    -13.036  0.7450E-13  0.1000E+01
    -12.945  0.4901E-15  0.1000E+01
    -12.855  0.0000E+00  0.1000E+01
    -12.764  0.0000E+00  0.1000E+01
    -12.674  0.0000E+00  0.1000E+01
    -12.583  0.0000E+00  0.1000E+01
    -12.492  0.0000E+00  0.1000E+01
    -12.402  0.0000E+00  0.1000E+01
    -12.311  0.0000E+00  0.1000E+01
    -12.221  0.0000E+00  0.1000E+01
    -12.130  0.3676E-15  0.1000E+01
    -12.039  0.5918E-13  0.1000E+01
    -11.949  0.7108E-11  0.1000E+01
    -11.858  0.5687E-09  0.1000E+01
    -11.768  0.3039E-07  0.1000E+01
    -11.677  0.1085E-05  0.1000E+01
    -11.586  0.2593E-04  0.1000E+01
    -11.496  0.4148E-03  0.1000E+01
    -11.405  0.4446E-02  0.1000E+01
    -11.314  0.3196E-01  0.1003E+01
    -11.224  0.1542E+00  0.1017E+01
    -11.133  0.4998E+00  0.1063E+01
    -11.043  0.1089E+01  0.1161E+01
    -10.952  0.1595E+01  0.1306E+01
    -10.861  0.1571E+01  0.1448E+01
    -10.771  0.1041E+01  0.1542E+01
    -10.680  0.4639E+00  0.1585E+01
    -10.590  0.1389E+00  0.1597E+01
    -10.499  0.2794E-01  0.1600E+01
    -10.408  0.3772E-02  0.1600E+01
    -10.318  0.3415E-03  0.1600E+01
    -10.227  0.2072E-04  0.1600E+01
    -10.137  0.8413E-06  0.1600E+01
    -10.046  0.2285E-07  0.1600E+01
     -9.955  0.4149E-09  0.1600E+01
     -9.865  0.5030E-11  0.1600E+01
     -9.774  0.4117E-13  0.1600E+01
     -9.684  0.0000E+00  0.1600E+01
     -9.593  0.0000E+00  0.1600E+01
     -9.502  0.0000E+00  0.1600E+01
     -9.412  0.0000E+00  0.1600E+01
     -9.321  0.0000E+00  0.1600E+01
     -9.231  0.0000E+00  0.1600E+01
     -9.140  0.0000E+00  0.1600E+01
     -9.049  0.0000E+00  0.1600E+01
     -8.959  0.0000E+00  0.1600E+01
     -8.868  0.0000E+00  0.1600E+01
     -8.777  0.0000E+00  0.1600E+01
     -8.687  0.6127E-14  0.1600E+01
     -8.596  0.8492E-12  0.1600E+01
     -8.506  0.7888E-10  0.1600E+01
     -8.415  0.4892E-08  0.1600E+01
     -8.324  0.2027E-06  0.1600E+01
     -8.234  0.5617E-05  0.1600E+01
     -8.143  0.1042E-03  0.1600E+01
     -8.053  0.1294E-02  0.1600E+01
     -7.962  0.1078E-01  0.1601E+01
     -7.871  0.6024E-01  0.1607E+01
     -7.781  0.2261E+00  0.1627E+01
     -7.690  0.5704E+00  0.1679E+01
     -7.600  0.9673E+00  0.1766E+01
     -7.509  0.1103E+01  0.1866E+01
     -7.418  0.8489E+00  0.1943E+01
     -7.328  0.4582E+00  0.1985E+01
     -7.237  0.2655E+00  0.2009E+01
     -7.147  0.4379E+00  0.2049E+01
     -7.056  0.9598E+00  0.2135E+01
     -6.965  0.1521E+01  0.2273E+01
     -6.875  0.1629E+01  0.2421E+01
     -6.784  0.1174E+01  0.2527E+01
     -6.694  0.5692E+00  0.2579E+01
     -6.603  0.1856E+00  0.2596E+01
     -6.512  0.4262E-01  0.2600E+01
     -6.422  0.2285E-01  0.2602E+01
     -6.331  0.9412E-01  0.2610E+01
     -6.241  0.3480E+00  0.2642E+01
     -6.150  0.8697E+00  0.2721E+01
     -6.059  0.1462E+01  0.2853E+01
     -5.969  0.1652E+01  0.3003E+01
     -5.878  0.1256E+01  0.3116E+01
     -5.787  0.6420E+00  0.3175E+01
     -5.697  0.2206E+00  0.3195E+01
     -5.606  0.5093E-01  0.3199E+01
     -5.516  0.7895E-02  0.3200E+01
     -5.425  0.8209E-03  0.3200E+01
     -5.334  0.5721E-04  0.3200E+01
     -5.244  0.2670E-05  0.3200E+01
     -5.153  0.8338E-07  0.3200E+01
     -5.063  0.1741E-08  0.3200E+01
     -4.972  0.2427E-10  0.3200E+01
     -4.881  0.2257E-12  0.3200E+01
     -4.791  0.1470E-14  0.3200E+01
     -4.700  0.0000E+00  0.3200E+01
     -4.610  0.0000E+00  0.3200E+01
     -4.519  0.0000E+00  0.3200E+01
     -4.428  0.0000E+00  0.3200E+01
     -4.338  0.0000E+00  0.3200E+01
     -4.247  0.0000E+00  0.3200E+01
     -4.157  0.0000E+00  0.3200E+01
     -4.066  0.0000E+00  0.3200E+01
     -3.975  0.0000E+00  0.3200E+01
     -3.885  0.0000E+00  0.3200E+01
     -3.794  0.0000E+00  0.3200E+01
     -3.704  0.0000E+00  0.3200E+01
     -3.613  0.0000E+00  0.3200E+01
     -3.522  0.0000E+00  0.3200E+01
     -3.432  0.0000E+00  0.3200E+01
     -3.341  0.0000E+00  0.3200E+01
     -3.251  0.0000E+00  0.3200E+01
     -3.160  0.0000E+00  0.3200E+01
     -3.069  0.0000E+00  0.3200E+01
     -2.979  0.0000E+00  0.3200E+01
     -2.888  0.0000E+00  0.3200E+01
     -2.797  0.0000E+00  0.3200E+01
     -2.707  0.0000E+00  0.3200E+01
     -2.616  0.0000E+00  0.3200E+01
     -2.526  0.0000E+00  0.3200E+01
     -2.435  0.0000E+00  0.3200E+01
     -2.344  0.1348E-14  0.3200E+01
     -2.254  0.1943E-12  0.3200E+01
     -2.163  0.1929E-10  0.3200E+01
     -2.073  0.1278E-08  0.3200E+01
     -1.982  0.5658E-07  0.3200E+01
     -1.891  0.1674E-05  0.3200E+01
     -1.801  0.3317E-04  0.3200E+01
     -1.710  0.4400E-03  0.3200E+01
     -1.620  0.3913E-02  0.3200E+01
     -1.529  0.2335E-01  0.3203E+01
     -1.438  0.9354E-01  0.3211E+01
     -1.348  0.2518E+00  0.3234E+01
     -1.257  0.4557E+00  0.3275E+01
     -1.167  0.5547E+00  0.3325E+01
     -1.076  0.4541E+00  0.3366E+01
     -0.985  0.2500E+00  0.3389E+01
     -0.895  0.9251E-01  0.3398E+01
     -0.804  0.2300E-01  0.3400E+01
     -0.714  0.3841E-02  0.3400E+01
     -0.623  0.4304E-03  0.3400E+01
     -0.532  0.3367E-04  0.3400E+01
     -0.442  0.3313E-04  0.3400E+01
     -0.351  0.4907E-03  0.3400E+01
     -0.260  0.5122E-02  0.3401E+01
     -0.170  0.3586E-01  0.3404E+01
     -0.079  0.1686E+00  0.3419E+01
      0.011  0.5323E+00  0.3467E+01
      0.102  0.1130E+01  0.3570E+01
      0.193  0.1613E+01  0.3716E+01
      0.283  0.1548E+01  0.3856E+01
      0.374  0.9998E+00  0.3947E+01
      0.464  0.4341E+00  0.3986E+01
      0.555  0.1267E+00  0.3997E+01
      0.646  0.2484E-01  0.4000E+01
      0.736  0.3268E-02  0.4000E+01
      0.827  0.2884E-03  0.4000E+01
      0.917  0.1705E-04  0.4000E+01
      1.008  0.6750E-06  0.4000E+01
      1.099  0.1787E-07  0.4000E+01
      1.189  0.3163E-09  0.4000E+01
      1.280  0.3738E-11  0.4000E+01
      1.370  0.2941E-13  0.4000E+01
      1.461  0.0000E+00  0.4000E+01
      1.552  0.0000E+00  0.4000E+01
      1.642  0.0000E+00  0.4000E+01
      1.733  0.0000E+00  0.4000E+01
      1.823  0.0000E+00  0.4000E+01
      1.914  0.0000E+00  0.4000E+01
      2.005  0.0000E+00  0.4000E+01
      2.095  0.0000E+00  0.4000E+01
      2.186  0.0000E+00  0.4000E+01
