    5    5   10    1
  0.1024000E+03  0.8000000E-09  0.8000000E-09  0.8000000E-09  0.5000000E-15
  1.000000000000000E-004
  CAR 
 unknown system                          
   32    1   20
 
  0.0000000E+00  0.0000000E+00  0.0000000E+00  0.1000000E+01
   1      -22.996036
   2      -19.839634
   3      -19.839634
   4      -19.839634
   5      -14.186124
   6      -10.955453
   7      -10.955453
   8      -10.955453
   9       -7.569584
  10       -7.569584
  11       -6.949569
  12       -6.949569
  13       -6.949569
  14       -6.031330
  15       -6.031330
  16       -6.031330
  17       -1.212282
  18        0.181904
  19        0.181904
  20        0.185876
