<?xml version="1.0" encoding="ISO-8859-1"?>
<modeling>
 <generator>
  <i name="program" type="string">vasp </i>
  <i name="version" type="string">5.2.12  </i>
  <i name="subversion" type="string">11Nov11 complex                                                      parallel </i>
  <i name="platform" type="string">LinuxIFC </i>
  <i name="date" type="string">2012 10 31 </i>
  <i name="time" type="string">21:35:03 </i>
 </generator>
 <incar>
  <i type="string" name="PREC">normal</i>
  <i type="int" name="IBRION">     2</i>
  <i type="int" name="NSW">    10</i>
  <i name="ENCUT">    400.00000000</i>
  <i type="int" name="ISMEAR">     0</i>
 </incar>
 <kpoints>
  <generation param="Monkhorst-Pack">
   <v type="int" name="divisions">       1        1        1 </v>
   <v name="usershift">      0.00000000       0.00000000       0.00000000 </v>
   <v name="genvec1">      1.00000000       0.00000000       0.00000000 </v>
   <v name="genvec2">      0.00000000       1.00000000       0.00000000 </v>
   <v name="genvec3">      0.00000000       0.00000000       1.00000000 </v>
   <v name="shift">      0.00000000       0.00000000       0.00000000 </v>
  </generation>
  <varray name="kpointlist" >
   <v>       0.00000000       0.00000000       0.00000000 </v>
  </varray>
  <varray name="weights" >
   <v>       1.00000000 </v>
  </varray>
 </kpoints>
 <parameters>
  <separator name="general" >
   <i type="string" name="SYSTEM">unknown system</i>
   <i type="logical" name="LCOMPAT"> F  </i>
  </separator>
  <separator name="electronic" >
   <i type="string" name="PREC">normal</i>
   <i name="ENMAX">    400.00000000</i>
   <i name="ENAUG">    644.87300000</i>
   <i name="EDIFF">      0.00010000</i>
   <i type="int" name="IALGO">    38</i>
   <i type="int" name="IWAVPR">    11</i>
   <i type="int" name="NBANDS">    20</i>
   <i name="NELECT">     32.00000000</i>
   <i type="int" name="TURBO">     0</i>
   <i type="int" name="IRESTART">     0</i>
   <i type="int" name="NREBOOT">     0</i>
   <i type="int" name="NMIN">     0</i>
   <i name="EREF">      0.00000000</i>
   <separator name="electronic smearing" >
    <i type="int" name="ISMEAR">     0</i>
    <i name="SIGMA">      0.20000000</i>
    <i name="KSPACING">      0.50000000</i>
    <i type="logical" name="KGAMMA"> T  </i>
   </separator>
   <separator name="electronic projectors" >
    <i type="logical" name="LREAL"> F  </i>
    <v name="ROPT">      0.00000000      0.00000000</v>
    <i type="int" name="LMAXPAW">  -100</i>
    <i type="int" name="LMAXMIX">     2</i>
    <i type="logical" name="NLSPLINE"> F  </i>
   </separator>
   <separator name="electronic startup" >
    <i type="int" name="ISTART">     0</i>
    <i type="int" name="ICHARG">     2</i>
    <i type="int" name="INIWAV">     1</i>
   </separator>
   <separator name="electronic spin" >
    <i type="int" name="ISPIN">     1</i>
    <i type="logical" name="LNONCOLLINEAR"> F  </i>
    <v name="MAGMOM">      1.00000000      1.00000000      1.00000000      1.00000000      1.00000000</v>
    <i name="NUPDOWN">     -1.00000000</i>
    <i type="logical" name="LSORBIT"> F  </i>
    <v name="SAXIS">      0.00000000      0.00000000      1.00000000</v>
    <i type="logical" name="LSPIRAL"> F  </i>
    <v name="QSPIRAL">      0.00000000      0.00000000      0.00000000</v>
    <i type="logical" name="LZEROZ"> F  </i>
   </separator>
   <separator name="electronic exchange-correlation" >
    <i type="logical" name="LASPH"> F  </i>
    <i type="logical" name="LMETAGGA"> F  </i>
   </separator>
   <separator name="electronic convergence" >
    <i type="int" name="NELM">    60</i>
    <i type="int" name="NELMDL">    -5</i>
    <i type="int" name="NELMIN">     2</i>
    <i name="ENINI">    400.00000000</i>
    <separator name="electronic convergence detail" >
     <i type="logical" name="LDIAG"> T  </i>
     <i type="logical" name="LSUBROT"> T  </i>
     <i name="WEIMIN">      0.00100000</i>
     <i name="EBREAK">      0.00000125</i>
     <i name="DEPER">      0.30000000</i>
     <i type="int" name="NRMM">     4</i>
     <i name="TIME">      0.40000000</i>
    </separator>
   </separator>
   <separator name="electronic mixer" >
    <i name="AMIX">      0.40000000</i>
    <i name="BMIX">      1.00000000</i>
    <i name="AMIN">      0.10000000</i>
    <i name="AMIX_MAG">      1.60000000</i>
    <i name="BMIX_MAG">      1.00000000</i>
    <separator name="electronic mixer details" >
     <i type="int" name="IMIX">     4</i>
     <i type="int" name="MAXMIX">   -45</i>
     <i name="WC">    100.00000000</i>
     <i type="int" name="INIMIX">     1</i>
     <i type="int" name="MIXPRE">     1</i>
     <i type="int" name="MREMOVE">     5</i>
    </separator>
   </separator>
   <separator name="electronic dipolcorrection" >
    <i type="logical" name="LDIPOL"> F  </i>
    <i type="logical" name="LMONO"> F  </i>
    <i type="int" name="IDIPOL">     0</i>
    <i name="EPSILON">      1.00000000</i>
    <v name="DIPOL">   -100.00000000   -100.00000000   -100.00000000</v>
    <i name="EFIELD">      0.00000000</i>
   </separator>
  </separator>
  <separator name="grids" >
   <i type="int" name="NGX">    40</i>
   <i type="int" name="NGY">    40</i>
   <i type="int" name="NGZ">    40</i>
   <i type="int" name="NGXF">    80</i>
   <i type="int" name="NGYF">    80</i>
   <i type="int" name="NGZF">    80</i>
   <i type="logical" name="ADDGRID"> F  </i>
  </separator>
  <separator name="ionic" >
   <i type="int" name="NSW">    10</i>
   <i type="int" name="IBRION">     2</i>
   <i type="int" name="ISIF">     2</i>
   <i name="PSTRESS">      0.00000000</i>
   <i name="EDIFFG">      0.00100000</i>
   <i type="int" name="NFREE">     1</i>
   <i name="POTIM">      0.50000000</i>
   <i name="SMASS">     -3.00000000</i>
   <i name="SCALEE">      1.00000000</i>
  </separator>
  <separator name="ionic md" >
   <i name="TEBEG">      0.00010000</i>
   <i name="TEEND">      0.00010000</i>
   <i type="int" name="NBLOCK">     1</i>
   <i type="int" name="KBLOCK">    10</i>
   <i type="int" name="NPACO">   256</i>
   <i name="APACO">     16.00000000</i>
  </separator>
  <separator name="symmetry" >
   <i type="int" name="ISYM">     2</i>
   <i name="SYMPREC">      0.00001000</i>
  </separator>
  <separator name="dos" >
   <i type="logical" name="LORBIT"> F  </i>
   <v name="RWIGS">     -1.00000000     -1.00000000</v>
   <i type="int" name="NEDOS">   301</i>
   <i name="EMIN">     10.00000000</i>
   <i name="EMAX">    -10.00000000</i>
   <i name="EFERMI">      0.00000000</i>
  </separator>
  <separator name="writing" >
   <i type="int" name="NWRITE">     2</i>
   <i type="logical" name="LWAVE"> T  </i>
   <i type="logical" name="LCHARG"> T  </i>
   <i type="logical" name="LPARD"> F  </i>
   <i type="logical" name="LVTOT"> F  </i>
   <i type="logical" name="LVHAR"> F  </i>
   <i type="logical" name="LELF"> F  </i>
   <i type="logical" name="LOPTICS"> F  </i>
   <v name="STM">      0.00000000      0.00000000      0.00000000      0.00000000      0.00000000      0.00000000      0.00000000</v>
  </separator>
  <separator name="performance" >
   <i type="int" name="NPAR">     1</i>
   <i type="int" name="NSIM">     4</i>
   <i type="int" name="NBLK">    -1</i>
   <i type="logical" name="LPLANE"> T  </i>
   <i type="logical" name="LSCALAPACK"> F  </i>
   <i type="logical" name="LSCAAWARE"> F  </i>
   <i type="logical" name="LSCALU"> F  </i>
   <i type="logical" name="LASYNC"> F  </i>
   <i type="logical" name="LORBITALREAL"> F  </i>
  </separator>
  <separator name="miscellaneous" >
   <i type="int" name="IDIOT">     3</i>
   <i type="logical" name="LMUSIC"> F  </i>
   <v name="POMASS">     12.01100000     35.45300000</v>
   <v name="DARWINR">      0.00000000      0.00000000</v>
   <v name="DARWINV">      1.00000000      1.00000000</v>
   <i type="logical" name="LCORR"> T  </i>
  </separator>
  <i type="logical" name="GGA_COMPAT"> T  </i>
  <i type="logical" name="LBERRY"> F  </i>
  <i type="int" name="ICORELEVEL">     0</i>
  <i type="logical" name="LDAU"> F  </i>
  <i type="int" name="I_CONSTRAINED_M">     0</i>
  <separator name="electronic exchange-correlation" >
   <i type="string" name="GGA">--</i>
   <i type="int" name="VOSKOWN">     0</i>
   <i type="logical" name="LHFCALC"> F  </i>
   <i type="string" name="PRECFOCK"></i>
   <i type="logical" name="LHFONE"> F  </i>
   <i type="logical" name="LRHFCALC"> F  </i>
   <i type="logical" name="LTHOMAS"> F  </i>
   <i type="logical" name="LMODELHF"> F  </i>
   <i name="ENCUT4O">     -1.00000000</i>
   <i type="int" name="EXXOEP">     0</i>
   <i type="int" name="FOURORBIT">     0</i>
   <i name="AEXX">      0.00000000</i>
   <i name="HFALPHA">      0.00000000</i>
   <i name="ALDAX">      1.00000000</i>
   <i name="AGGAX">      1.00000000</i>
   <i name="ALDAC">      1.00000000</i>
   <i name="AGGAC">      1.00000000</i>
   <i type="int" name="NKREDX">     1</i>
   <i type="int" name="NKREDY">     1</i>
   <i type="int" name="NKREDZ">     1</i>
   <i type="logical" name="SHIFTRED"> F  </i>
   <i type="logical" name="ODDONLY"> F  </i>
   <i type="logical" name="EVENONLY"> F  </i>
   <i type="int" name="LMAXFOCK">     0</i>
   <i type="int" name="NMAXFOCKAE">     0</i>
   <i type="logical" name="LFOCKAEDFT"> F  </i>
   <i name="HFSCREEN">      0.00000000</i>
   <i name="HFSCREENC">      0.00000000</i>
  </separator>
  <separator name="vdW DFT" >
   <i type="logical" name="LUSE_VDW"> F  </i>
   <i name="Zab_VDW">     -0.84910000</i>
   <i name="PARAM1">      0.12340000</i>
   <i name="PARAM2">      1.00000000</i>
   <i name="PARAM3">      0.00000000</i>
  </separator>
  <separator name="model GW" >
   <i type="int" name="MODEL_GW">     0</i>
   <i name="MODEL_EPS0">     61.44000000</i>
   <i name="MODEL_ALPHA">      1.00000000</i>
  </separator>
  <separator name="linear response parameters" >
   <i type="logical" name="LEPSILON"> F  </i>
   <i type="logical" name="LRPA"> F  </i>
   <i type="logical" name="LNABLA"> F  </i>
   <i type="logical" name="LVEL"> F  </i>
   <i type="int" name="KINTER">     0</i>
   <i name="CSHIFT">      0.10000000</i>
   <i name="OMEGAMAX">     -1.00000000</i>
  </separator>
  <separator name="orbital magnetization" >
   <i type="logical" name="NUCIND"> F  </i>
   <v name="MAGPOS">      0.00000000      0.00000000      0.00000000</v>
   <i type="logical" name="LNICSALL"> T  </i>
   <i type="logical" name="ORBITALMAG"> F  </i>
   <i type="logical" name="LMAGBLOCH"> F  </i>
   <i type="logical" name="LCHIMAG"> F  </i>
   <i type="logical" name="LGAUGE"> T  </i>
   <i type="int" name="MAGATOM">     0</i>
   <v name="MAGDIPOL">      0.00000000      0.00000000      0.00000000</v>
   <v name="AVECCONST">      0.00000000      0.00000000      0.00000000</v>
  </separator>
  <separator name="response functions" >
   <i type="logical" name="LADDER"> F  </i>
   <i type="logical" name="LHARTREE"> T  </i>
   <i type="int" name="IBSE">     0</i>
   <i type="logical" name="LTCTE"> F  </i>
   <i type="logical" name="LTETE"> F  </i>
   <i type="logical" name="LFXCEPS"> F  </i>
   <i type="logical" name="L2ORDER"> F  </i>
   <i type="logical" name="LUSEW"> F  </i>
   <i name="ENCUTGW">     -2.00000000</i>
   <i name="ENCUTGWSOFT">     -2.00000000</i>
   <i name="ENCUTLF">     -1.00000000</i>
   <i type="int" name="LMAXMP2">    -1</i>
   <i name="SCISSOR">      0.00000000</i>
   <i type="int" name="NOMEGA">     0</i>
   <i type="int" name="NOMEGAR">     0</i>
   <i type="int" name="NBANDSGW">    -1</i>
   <i type="int" name="NBANDSO">    -1</i>
   <i type="int" name="NBANDSV">    -1</i>
   <i name="OPTEMAX">      0.00000000</i>
   <i type="int" name="NELM">     1</i>
   <i type="int" name="DIM">     3</i>
   <i type="int" name="ANTIRES">     0</i>
   <i name="OMEGAMAX">    -30.00000000</i>
   <i name="OMEGATL">   -200.00000000</i>
   <i type="int" name="OMEGAGRID">     0</i>
   <i name="CSHIFT">     -0.10000000</i>
   <i type="logical" name="SELFENERGY"> F  </i>
   <i type="logical" name="LSPECTRAL"> F  </i>
   <i type="logical" name="ODDONLYGW"> F  </i>
   <i type="logical" name="EVENONLYGW"> F  </i>
   <i type="int" name="NKREDLFX">     1</i>
   <i type="int" name="NKREDLFY">     1</i>
   <i type="int" name="NKREDLFZ">     1</i>
   <i type="int" name="MAXMEM">  1800</i>
   <i type="int" name="TELESCOPE">     0</i>
  </separator>
 </parameters>
 <atominfo>
  <atoms>       5 </atoms>
  <types>       2 </types>
  <array name="atoms" >
   <dimension dim="1">ion</dimension>
   <field type="string">element</field>
   <field type="int">atomtype</field>
   <set>
    <rc><c>C </c><c>   1</c></rc>
    <rc><c>Cl</c><c>   2</c></rc>
    <rc><c>Cl</c><c>   2</c></rc>
    <rc><c>Cl</c><c>   2</c></rc>
    <rc><c>Cl</c><c>   2</c></rc>
   </set>
  </array>
  <array name="atomtypes" >
   <dimension dim="1">type</dimension>
   <field type="int">atomspertype</field>
   <field type="string">element</field>
   <field>mass</field>
   <field>valence</field>
   <field type="string">pseudopotential</field>
   <set>
    <rc><c>   1</c><c>C </c><c>     12.01100000</c><c>      4.00000000</c><c> PAW_PBE C 08Apr2002                    </c></rc>
    <rc><c>   4</c><c>Cl</c><c>     35.45300000</c><c>      7.00000000</c><c>  PAW_PBE Cl 17Jan2003                  </c></rc>
   </set>
  </array>
 </atominfo>
 <structure name="initialpos" >
  <crystal>
   <varray name="basis" >
    <v>       8.00000000       0.00000000       0.00000000 </v>
    <v>       0.00000000       8.00000000       0.00000000 </v>
    <v>       0.00000000       0.00000000       8.00000000 </v>
   </varray>
   <i name="volume">    512.00000000 </i>
   <varray name="rec_basis" >
    <v>       0.12500000       0.00000000       0.00000000 </v>
    <v>       0.00000000       0.12500000       0.00000000 </v>
    <v>       0.00000000       0.00000000       0.12500000 </v>
   </varray>
  </crystal>
  <varray name="positions" >
   <v>       0.00000000       0.00000000       0.00000000 </v>
   <v>       0.12766750       0.12766750       0.12766750 </v>
   <v>       0.87233250       0.87233250       0.12766750 </v>
   <v>       0.87233250       0.12766750       0.87233250 </v>
   <v>       0.12766750       0.87233250       0.87233250 </v>
  </varray>
 </structure>
 <calculation>
  <scstep>
   <time name="dav">    0.79    0.79</time>
   <time name="total">    1.61    1.62</time>
   <energy>
    <i name="alphaZ">      8.81598031 </i>
    <i name="ewald">    -81.24181609 </i>
    <i name="hartreedc">  -1444.11011375 </i>
    <i name="XCdc">     93.80984892 </i>
    <i name="pawpsdc">    831.83787413 </i>
    <i name="pawaedc">   -833.44360687 </i>
    <i name="eentropy">     -0.01080579 </i>
    <i name="bandstr">    -83.76430343 </i>
    <i name="atom">   1785.99508620 </i>
    <i name="e_fr_energy">    277.88814362 </i>
    <i name="e_wo_entrp">    277.89894942 </i>
    <i name="e_0_energy">    277.89354652 </i>
   </energy>
  </scstep>
  <scstep>
   <time name="dav">    1.18    1.18</time>
   <time name="total">    1.18    1.19</time>
   <energy>
    <i name="e_fr_energy">     36.27073970 </i>
    <i name="e_wo_entrp">     36.27073970 </i>
    <i name="e_0_energy">     36.27073970 </i>
   </energy>
  </scstep>
  <scstep>
   <time name="dav">    0.87    0.88</time>
   <time name="total">    0.88    0.89</time>
   <energy>
    <i name="e_fr_energy">    -16.00719237 </i>
    <i name="e_wo_entrp">    -16.00719237 </i>
    <i name="e_0_energy">    -16.00719237 </i>
   </energy>
  </scstep>
  <scstep>
   <time name="dav">    0.95    0.95</time>
   <time name="total">    0.95    0.96</time>
   <energy>
    <i name="e_fr_energy">    -17.56013464 </i>
    <i name="e_wo_entrp">    -17.56013464 </i>
    <i name="e_0_energy">    -17.56013464 </i>
   </energy>
  </scstep>
  <scstep>
   <time name="dav">    1.11    1.11</time>
   <time name="total">    1.30    1.34</time>
   <energy>
    <i name="e_fr_energy">    -17.61458400 </i>
    <i name="e_wo_entrp">    -17.61458400 </i>
    <i name="e_0_energy">    -17.61458400 </i>
   </energy>
  </scstep>
  <scstep>
   <time name="dav">    0.94    0.94</time>
   <time name="total">    1.95    1.97</time>
   <energy>
    <i name="e_fr_energy">    -17.36982067 </i>
    <i name="e_wo_entrp">    -17.36982067 </i>
    <i name="e_0_energy">    -17.36982067 </i>
   </energy>
  </scstep>
  <scstep>
   <time name="dav">    0.82    0.82</time>
   <time name="total">    1.83    1.84</time>
   <energy>
    <i name="e_fr_energy">    -17.29076589 </i>
    <i name="e_wo_entrp">    -17.29076589 </i>
    <i name="e_0_energy">    -17.29076589 </i>
   </energy>
  </scstep>
  <scstep>
   <time name="dav">    1.05    1.05</time>
   <time name="total">    2.06    2.07</time>
   <energy>
    <i name="e_fr_energy">    -17.29127256 </i>
    <i name="e_wo_entrp">    -17.29127256 </i>
    <i name="e_0_energy">    -17.29127256 </i>
   </energy>
  </scstep>
  <scstep>
   <time name="dav">    0.80    0.80</time>
   <time name="total">    1.80    1.94</time>
   <energy>
    <i name="e_fr_energy">    -17.29235114 </i>
    <i name="e_wo_entrp">    -17.29235114 </i>
    <i name="e_0_energy">    -17.29235114 </i>
   </energy>
  </scstep>
  <scstep>
   <time name="dav">    0.71    0.71</time>
   <time name="total">    1.72    1.73</time>
   <energy>
    <i name="e_fr_energy">    -17.29341660 </i>
    <i name="e_wo_entrp">    -17.29341660 </i>
    <i name="e_0_energy">    -17.29341660 </i>
   </energy>
  </scstep>
  <scstep>
   <time name="dav">    0.59    0.59</time>
   <time name="total">    1.59    1.61</time>
   <energy>
    <i name="e_fr_energy">    -17.29408288 </i>
    <i name="e_wo_entrp">    -17.29408288 </i>
    <i name="e_0_energy">    -17.29408288 </i>
   </energy>
  </scstep>
  <scstep>
   <time name="dav">    0.59    0.59</time>
   <time name="total">    1.60    1.62</time>
   <energy>
    <i name="e_fr_energy">    -17.29477226 </i>
    <i name="e_wo_entrp">    -17.29477226 </i>
    <i name="e_0_energy">    -17.29477226 </i>
   </energy>
  </scstep>
  <scstep>
   <time name="dav">    0.61    0.61</time>
   <time name="total">    1.63    1.64</time>
   <energy>
    <i name="e_fr_energy">    -17.29487386 </i>
    <i name="e_wo_entrp">    -17.29487386 </i>
    <i name="e_0_energy">    -17.29487386 </i>
   </energy>
  </scstep>
  <scstep>
   <time name="dav">    0.65    0.65</time>
   <time name="total">    1.52    1.54</time>
   <energy>
    <i name="alphaZ">      8.81598031 </i>
    <i name="ewald">    -81.24181609 </i>
    <i name="hartreedc">  -1455.65882241 </i>
    <i name="XCdc">     94.74120385 </i>
    <i name="pawpsdc">    904.98480577 </i>
    <i name="pawaedc">   -907.12833657 </i>
    <i name="eentropy">      0.00000000 </i>
    <i name="bandstr">   -367.80302963 </i>
    <i name="atom">   1785.99508620 </i>
    <i name="e_fr_energy">    -17.29492857 </i>
    <i name="e_wo_entrp">    -17.29492857 </i>
    <i name="e_0_energy">    -17.29492857 </i>
   </energy>
  </scstep>
  <parameters_embedded>
   <separator name="dft+d2" >
    <i type="logical" name="LVDW"> F  </i>
   </separator>
  </parameters_embedded>
  <structure>
   <crystal>
    <varray name="basis" >
     <v>       8.00000000       0.00000000       0.00000000 </v>
     <v>       0.00000000       8.00000000       0.00000000 </v>
     <v>       0.00000000       0.00000000       8.00000000 </v>
    </varray>
    <i name="volume">    512.00000000 </i>
    <varray name="rec_basis" >
     <v>       0.12500000       0.00000000       0.00000000 </v>
     <v>       0.00000000       0.12500000       0.00000000 </v>
     <v>       0.00000000       0.00000000       0.12500000 </v>
    </varray>
   </crystal>
   <varray name="positions" >
    <v>       0.00000000       0.00000000       0.00000000 </v>
    <v>       0.12766750       0.12766750       0.12766750 </v>
    <v>       0.87233250       0.87233250       0.12766750 </v>
    <v>       0.87233250       0.12766750       0.87233250 </v>
    <v>       0.12766750       0.87233250       0.87233250 </v>
   </varray>
  </structure>
  <varray name="forces" >
   <v>       0.00000000       0.00000000       0.00000000 </v>
   <v>       0.11438770       0.11438770       0.11438770 </v>
   <v>      -0.11438770      -0.11438770       0.11438770 </v>
   <v>      -0.11438770       0.11438770      -0.11438770 </v>
   <v>       0.11438770      -0.11438770      -0.11438770 </v>
  </varray>
  <varray name="stress" >
   <v>       0.87475708       0.00000000       0.00000000 </v>
   <v>       0.00000000       0.87475708       0.00000000 </v>
   <v>       0.00000000       0.00000000       0.87475708 </v>
  </varray>
  <energy>
   <i name="e_fr_energy">    -17.29492857 </i>
   <i name="e_wo_entrp">    -17.29492857 </i>
   <i name="e_0_energy">      0.00000000 </i>
  </energy>
  <time name="totalsc">   25.98   26.72</time>
 </calculation>
 <calculation>
  <scstep>
   <time name="dav">    0.93    0.93</time>
   <time name="total">    2.04    2.05</time>
   <energy>
    <i name="alphaZ">      8.81598031 </i>
    <i name="ewald">    -92.42425072 </i>
    <i name="hartreedc">  -1445.47227189 </i>
    <i name="XCdc">     94.61878712 </i>
    <i name="pawpsdc">    904.99031511 </i>
    <i name="pawaedc">   -907.13389185 </i>
    <i name="eentropy">      0.00000000 </i>
    <i name="bandstr">   -366.68521343 </i>
    <i name="atom">   1785.99508620 </i>
    <i name="e_fr_energy">    -17.29545914 </i>
    <i name="e_wo_entrp">    -17.29545914 </i>
    <i name="e_0_energy">    -17.29545914 </i>
   </energy>
  </scstep>
  <scstep>
   <time name="dav">    1.07    1.07</time>
   <time name="total">    2.23    2.25</time>
   <energy>
    <i name="e_fr_energy">    -17.29788415 </i>
    <i name="e_wo_entrp">    -17.29788415 </i>
    <i name="e_0_energy">    -17.29788415 </i>
   </energy>
  </scstep>
  <scstep>
   <time name="dav">    1.22    1.22</time>
   <time name="total">    2.51    2.52</time>
   <energy>
    <i name="e_fr_energy">    -17.29777235 </i>
    <i name="e_wo_entrp">    -17.29777235 </i>
    <i name="e_0_energy">    -17.29777235 </i>
   </energy>
  </scstep>
  <scstep>
   <time name="dav">    0.71    0.71</time>
   <time name="total">    1.75    1.76</time>
   <energy>
    <i name="alphaZ">      8.81598031 </i>
    <i name="ewald">    -92.42425072 </i>
    <i name="hartreedc">  -1445.02925239 </i>
    <i name="XCdc">     94.60914369 </i>
    <i name="pawpsdc">    902.73438181 </i>
    <i name="pawaedc">   -904.85829997 </i>
    <i name="eentropy">      0.00000000 </i>
    <i name="bandstr">   -367.14051990 </i>
    <i name="atom">   1785.99508620 </i>
    <i name="e_fr_energy">    -17.29773096 </i>
    <i name="e_wo_entrp">    -17.29773096 </i>
    <i name="e_0_energy">    -17.29773096 </i>
   </energy>
  </scstep>
  <structure>
   <crystal>
    <varray name="basis" >
     <v>       8.00000000       0.00000000       0.00000000 </v>
     <v>       0.00000000       8.00000000       0.00000000 </v>
     <v>       0.00000000       0.00000000       8.00000000 </v>
    </varray>
    <i name="volume">    512.00000000 </i>
    <varray name="rec_basis" >
     <v>       0.12500000       0.00000000       0.00000000 </v>
     <v>       0.00000000       0.12500000       0.00000000 </v>
     <v>       0.00000000       0.00000000       0.12500000 </v>
    </varray>
   </crystal>
   <varray name="positions" >
    <v>       0.00000000       0.00000000       0.00000000 </v>
    <v>       0.12835730       0.12835730       0.12835730 </v>
    <v>       0.87164270       0.87164270       0.12835730 </v>
    <v>       0.87164270       0.12835730       0.87164270 </v>
    <v>       0.12835730       0.87164270       0.87164270 </v>
   </varray>
  </structure>
  <varray name="forces" >
   <v>       0.00000000       0.00000000       0.00000000 </v>
   <v>      -0.02363110      -0.02363110      -0.02363110 </v>
   <v>       0.02363110       0.02363110      -0.02363110 </v>
   <v>       0.02363110      -0.02363110       0.02363110 </v>
   <v>      -0.02363110       0.02363110       0.02363110 </v>
  </varray>
  <varray name="stress" >
   <v>      -1.00796384       0.00000000       0.00000000 </v>
   <v>       0.00000000      -1.00796384       0.00000000 </v>
   <v>       0.00000000       0.00000000      -1.00796384 </v>
  </varray>
  <energy>
   <i name="e_fr_energy">    -17.29773096 </i>
   <i name="e_wo_entrp">    -17.29773096 </i>
   <i name="e_0_energy">      0.00000000 </i>
  </energy>
  <time name="totalsc">   11.61   11.72</time>
 </calculation>
 <calculation>
  <scstep>
   <time name="dav">    0.88    0.88</time>
   <time name="total">    1.89    1.89</time>
   <energy>
    <i name="alphaZ">      8.81598031 </i>
    <i name="ewald">    -90.51983363 </i>
    <i name="hartreedc">  -1446.72945683 </i>
    <i name="XCdc">     94.62918400 </i>
    <i name="pawpsdc">    902.32473666 </i>
    <i name="pawaedc">   -904.44443603 </i>
    <i name="eentropy">      0.00000000 </i>
    <i name="bandstr">   -367.36911423 </i>
    <i name="atom">   1785.99508620 </i>
    <i name="e_fr_energy">    -17.29785354 </i>
    <i name="e_wo_entrp">    -17.29785354 </i>
    <i name="e_0_energy">    -17.29785354 </i>
   </energy>
  </scstep>
  <scstep>
   <time name="dav">    0.92    0.92</time>
   <time name="total">    1.74    1.78</time>
   <energy>
    <i name="alphaZ">      8.81598031 </i>
    <i name="ewald">    -90.51983363 </i>
    <i name="hartreedc">  -1446.80016938 </i>
    <i name="XCdc">     94.63027807 </i>
    <i name="pawpsdc">    902.49225675 </i>
    <i name="pawaedc">   -904.61294796 </i>
    <i name="eentropy">      0.00000000 </i>
    <i name="bandstr">   -367.29858024 </i>
    <i name="atom">   1785.99508620 </i>
    <i name="e_fr_energy">    -17.29792987 </i>
    <i name="e_wo_entrp">    -17.29792987 </i>
    <i name="e_0_energy">    -17.29792987 </i>
   </energy>
  </scstep>
  <structure>
   <crystal>
    <varray name="basis" >
     <v>       8.00000000       0.00000000       0.00000000 </v>
     <v>       0.00000000       8.00000000       0.00000000 </v>
     <v>       0.00000000       0.00000000       8.00000000 </v>
    </varray>
    <i name="volume">    512.00000000 </i>
    <varray name="rec_basis" >
     <v>       0.12500000       0.00000000       0.00000000 </v>
     <v>       0.00000000       0.12500000       0.00000000 </v>
     <v>       0.00000000       0.00000000       0.12500000 </v>
    </varray>
   </crystal>
   <varray name="positions" >
    <v>       0.00000000       0.00000000       0.00000000 </v>
    <v>       0.12823919       0.12823919       0.12823919 </v>
    <v>       0.87176081       0.87176081       0.12823919 </v>
    <v>       0.87176081       0.12823919       0.87176081 </v>
    <v>       0.12823919       0.87176081       0.87176081 </v>
   </varray>
  </structure>
  <varray name="forces" >
   <v>       0.00000000       0.00000000       0.00000000 </v>
   <v>      -0.00291561      -0.00291561      -0.00291561 </v>
   <v>       0.00291561       0.00291561      -0.00291561 </v>
   <v>       0.00291561      -0.00291561       0.00291561 </v>
   <v>      -0.00291561       0.00291561       0.00291561 </v>
  </varray>
  <varray name="stress" >
   <v>      -0.58609180       0.00000000       0.00000000 </v>
   <v>       0.00000000      -0.58609180       0.00000000 </v>
   <v>       0.00000000       0.00000000      -0.58609180 </v>
  </varray>
  <energy>
   <i name="e_fr_energy">    -17.29792987 </i>
   <i name="e_wo_entrp">    -17.29792987 </i>
   <i name="e_0_energy">      0.00000000 </i>
  </energy>
  <time name="totalsc">    6.99    7.36</time>
  <eigenvalues>
   <array>
    <dimension dim="1">band</dimension>
    <dimension dim="2">kpoint</dimension>
    <dimension dim="3">spin</dimension>
    <field>eigene</field>
    <field>occ</field>
    <set>
     <set comment="spin 1">
      <set comment="kpoint 1">
       <r>  -22.9960    1.0000 </r>
       <r>  -19.8396    1.0000 </r>
       <r>  -19.8396    1.0000 </r>
       <r>  -19.8396    1.0000 </r>
       <r>  -14.1861    1.0000 </r>
       <r>  -10.9555    1.0000 </r>
       <r>  -10.9555    1.0000 </r>
       <r>  -10.9555    1.0000 </r>
       <r>   -7.5696    1.0000 </r>
       <r>   -7.5696    1.0000 </r>
       <r>   -6.9496    1.0000 </r>
       <r>   -6.9496    1.0000 </r>
       <r>   -6.9496    1.0000 </r>
       <r>   -6.0313    1.0000 </r>
       <r>   -6.0313    1.0000 </r>
       <r>   -6.0313    1.0000 </r>
       <r>   -1.2123    0.0000 </r>
       <r>    0.1819    0.0000 </r>
       <r>    0.1819    0.0000 </r>
       <r>    0.1859    0.0000 </r>
      </set>
     </set>
    </set>
   </array>
  </eigenvalues>
  <separator name="orbital magnetization" >
   <v name="MAGDIPOLOUT">      0.00000000      0.00000000      0.00000000</v>
  </separator>
  <dos>
   <i name="efermi">     -5.06227963 </i>
   <total>
    <array>
     <dimension dim="1">gridpoints</dimension>
     <dimension dim="2">spin</dimension>
     <field>energy</field>
     <field>total</field>
     <field>integrated</field>
     <set>
      <set comment="spin 1">
       <r>   -24.9960     0.0000     0.0000 </r>
       <r>   -24.9054     0.0000     0.0000 </r>
       <r>   -24.8148     0.0000     0.0000 </r>
       <r>   -24.7242     0.0000     0.0000 </r>
       <r>   -24.6336     0.0000     0.0000 </r>
       <r>   -24.5430     0.0000     0.0000 </r>
       <r>   -24.4524     0.0000     0.0000 </r>
       <r>   -24.3618     0.0000     0.0000 </r>
       <r>   -24.2712     0.0000     0.0000 </r>
       <r>   -24.1806     0.0000     0.0000 </r>
       <r>   -24.0900     0.0000     0.0000 </r>
       <r>   -23.9994     0.0000     0.0000 </r>
       <r>   -23.9088     0.0000     0.0000 </r>
       <r>   -23.8182     0.0000     0.0000 </r>
       <r>   -23.7275     0.0000     0.0000 </r>
       <r>   -23.6369     0.0001     0.0000 </r>
       <r>   -23.5463     0.0010     0.0001 </r>
       <r>   -23.4557     0.0116     0.0012 </r>
       <r>   -23.3651     0.0873     0.0091 </r>
       <r>   -23.2745     0.4401     0.0489 </r>
       <r>   -23.1839     1.4910     0.1840 </r>
       <r>   -23.0933     3.3945     0.4916 </r>
       <r>   -23.0027     5.1966     0.9624 </r>
       <r>   -22.9121     5.3503     1.4472 </r>
       <r>   -22.8215     3.7049     1.7829 </r>
       <r>   -22.7309     1.7251     1.9392 </r>
       <r>   -22.6403     0.5399     1.9881 </r>
       <r>   -22.5497     0.1135     1.9984 </r>
       <r>   -22.4591     0.0160     1.9999 </r>
       <r>   -22.3685     0.0015     2.0000 </r>
       <r>   -22.2778     0.0001     2.0000 </r>
       <r>   -22.1872     0.0000     2.0000 </r>
       <r>   -22.0966     0.0000     2.0000 </r>
       <r>   -22.0060     0.0000     2.0000 </r>
       <r>   -21.9154     0.0000     2.0000 </r>
       <r>   -21.8248     0.0000     2.0000 </r>
       <r>   -21.7342     0.0000     2.0000 </r>
       <r>   -21.6436     0.0000     2.0000 </r>
       <r>   -21.5530     0.0000     2.0000 </r>
       <r>   -21.4624     0.0000     2.0000 </r>
       <r>   -21.3718     0.0000     2.0000 </r>
       <r>   -21.2812     0.0000     2.0000 </r>
       <r>   -21.1906     0.0000     2.0000 </r>
       <r>   -21.1000     0.0000     2.0000 </r>
       <r>   -21.0094     0.0000     2.0000 </r>
       <r>   -20.9187     0.0000     2.0000 </r>
       <r>   -20.8281     0.0000     2.0000 </r>
       <r>   -20.7375     0.0000     2.0000 </r>
       <r>   -20.6469     0.0000     2.0000 </r>
       <r>   -20.5563     0.0000     2.0000 </r>
       <r>   -20.4657     0.0003     2.0000 </r>
       <r>   -20.3751     0.0047     2.0005 </r>
       <r>   -20.2845     0.0498     2.0050 </r>
       <r>   -20.1939     0.3506     2.0367 </r>
       <r>   -20.1033     1.6565     2.1868 </r>
       <r>   -20.0127     5.2582     2.6632 </r>
       <r>   -19.9221    11.2187     3.6797 </r>
       <r>   -19.8315    16.0952     5.1381 </r>
       <r>   -19.7409    15.5303     6.5452 </r>
       <r>   -19.6503    10.0783     7.4584 </r>
       <r>   -19.5597     4.3975     7.8568 </r>
       <r>   -19.4690     1.2896     7.9737 </r>
       <r>   -19.3784     0.2540     7.9967 </r>
       <r>   -19.2878     0.0336     7.9997 </r>
       <r>   -19.1972     0.0030     8.0000 </r>
       <r>   -19.1066     0.0002     8.0000 </r>
       <r>   -19.0160     0.0000     8.0000 </r>
       <r>   -18.9254     0.0000     8.0000 </r>
       <r>   -18.8348     0.0000     8.0000 </r>
       <r>   -18.7442     0.0000     8.0000 </r>
       <r>   -18.6536     0.0000     8.0000 </r>
       <r>   -18.5630     0.0000     8.0000 </r>
       <r>   -18.4724     0.0000     8.0000 </r>
       <r>   -18.3818     0.0000     8.0000 </r>
       <r>   -18.2912     0.0000     8.0000 </r>
       <r>   -18.2006     0.0000     8.0000 </r>
       <r>   -18.1100     0.0000     8.0000 </r>
       <r>   -18.0193     0.0000     8.0000 </r>
       <r>   -17.9287     0.0000     8.0000 </r>
       <r>   -17.8381     0.0000     8.0000 </r>
       <r>   -17.7475     0.0000     8.0000 </r>
       <r>   -17.6569     0.0000     8.0000 </r>
       <r>   -17.5663     0.0000     8.0000 </r>
       <r>   -17.4757     0.0000     8.0000 </r>
       <r>   -17.3851     0.0000     8.0000 </r>
       <r>   -17.2945     0.0000     8.0000 </r>
       <r>   -17.2039     0.0000     8.0000 </r>
       <r>   -17.1133     0.0000     8.0000 </r>
       <r>   -17.0227     0.0000     8.0000 </r>
       <r>   -16.9321     0.0000     8.0000 </r>
       <r>   -16.8415     0.0000     8.0000 </r>
       <r>   -16.7509     0.0000     8.0000 </r>
       <r>   -16.6602     0.0000     8.0000 </r>
       <r>   -16.5696     0.0000     8.0000 </r>
       <r>   -16.4790     0.0000     8.0000 </r>
       <r>   -16.3884     0.0000     8.0000 </r>
       <r>   -16.2978     0.0000     8.0000 </r>
       <r>   -16.2072     0.0000     8.0000 </r>
       <r>   -16.1166     0.0000     8.0000 </r>
       <r>   -16.0260     0.0000     8.0000 </r>
       <r>   -15.9354     0.0000     8.0000 </r>
       <r>   -15.8448     0.0000     8.0000 </r>
       <r>   -15.7542     0.0000     8.0000 </r>
       <r>   -15.6636     0.0000     8.0000 </r>
       <r>   -15.5730     0.0000     8.0000 </r>
       <r>   -15.4824     0.0000     8.0000 </r>
       <r>   -15.3918     0.0000     8.0000 </r>
       <r>   -15.3012     0.0000     8.0000 </r>
       <r>   -15.2105     0.0000     8.0000 </r>
       <r>   -15.1199     0.0000     8.0000 </r>
       <r>   -15.0293     0.0000     8.0000 </r>
       <r>   -14.9387     0.0000     8.0000 </r>
       <r>   -14.8481     0.0000     8.0000 </r>
       <r>   -14.7575     0.0006     8.0001 </r>
       <r>   -14.6669     0.0069     8.0007 </r>
       <r>   -14.5763     0.0565     8.0058 </r>
       <r>   -14.4857     0.3129     8.0341 </r>
       <r>   -14.3951     1.1628     8.1395 </r>
       <r>   -14.3045     2.9040     8.4026 </r>
       <r>   -14.2139     4.8759     8.8444 </r>
       <r>   -14.1233     5.5058     9.3433 </r>
       <r>   -14.0327     4.1814     9.7221 </r>
       <r>   -13.9421     2.1354     9.9156 </r>
       <r>   -13.8515     0.7331     9.9820 </r>
       <r>   -13.7608     0.1691     9.9974 </r>
       <r>   -13.6702     0.0262     9.9997 </r>
       <r>   -13.5796     0.0027    10.0000 </r>
       <r>   -13.4890     0.0002    10.0000 </r>
       <r>   -13.3984     0.0000    10.0000 </r>
       <r>   -13.3078     0.0000    10.0000 </r>
       <r>   -13.2172     0.0000    10.0000 </r>
       <r>   -13.1266     0.0000    10.0000 </r>
       <r>   -13.0360     0.0000    10.0000 </r>
       <r>   -12.9454     0.0000    10.0000 </r>
       <r>   -12.8548     0.0000    10.0000 </r>
       <r>   -12.7642     0.0000    10.0000 </r>
       <r>   -12.6736     0.0000    10.0000 </r>
       <r>   -12.5830     0.0000    10.0000 </r>
       <r>   -12.4924     0.0000    10.0000 </r>
       <r>   -12.4017     0.0000    10.0000 </r>
       <r>   -12.3111     0.0000    10.0000 </r>
       <r>   -12.2205     0.0000    10.0000 </r>
       <r>   -12.1299     0.0000    10.0000 </r>
       <r>   -12.0393     0.0000    10.0000 </r>
       <r>   -11.9487     0.0000    10.0000 </r>
       <r>   -11.8581     0.0000    10.0000 </r>
       <r>   -11.7675     0.0000    10.0000 </r>
       <r>   -11.6769     0.0000    10.0000 </r>
       <r>   -11.5863     0.0003    10.0000 </r>
       <r>   -11.4957     0.0041    10.0004 </r>
       <r>   -11.4051     0.0445    10.0044 </r>
       <r>   -11.3145     0.3196    10.0334 </r>
       <r>   -11.2239     1.5420    10.1731 </r>
       <r>   -11.1333     4.9980    10.6259 </r>
       <r>   -11.0427    10.8882    11.6125 </r>
       <r>   -10.9520    15.9497    13.0576 </r>
       <r>   -10.8614    15.7137    14.4814 </r>
       <r>   -10.7708    10.4119    15.4248 </r>
       <r>   -10.6802     4.6388    15.8451 </r>
       <r>   -10.5896     1.3891    15.9709 </r>
       <r>   -10.4990     0.2794    15.9963 </r>
       <r>   -10.4084     0.0377    15.9997 </r>
       <r>   -10.3178     0.0034    16.0000 </r>
       <r>   -10.2272     0.0002    16.0000 </r>
       <r>   -10.1366     0.0000    16.0000 </r>
       <r>   -10.0460     0.0000    16.0000 </r>
       <r>    -9.9554     0.0000    16.0000 </r>
       <r>    -9.8648     0.0000    16.0000 </r>
       <r>    -9.7742     0.0000    16.0000 </r>
       <r>    -9.6836     0.0000    16.0000 </r>
       <r>    -9.5930     0.0000    16.0000 </r>
       <r>    -9.5023     0.0000    16.0000 </r>
       <r>    -9.4117     0.0000    16.0000 </r>
       <r>    -9.3211     0.0000    16.0000 </r>
       <r>    -9.2305     0.0000    16.0000 </r>
       <r>    -9.1399     0.0000    16.0000 </r>
       <r>    -9.0493     0.0000    16.0000 </r>
       <r>    -8.9587     0.0000    16.0000 </r>
       <r>    -8.8681     0.0000    16.0000 </r>
       <r>    -8.7775     0.0000    16.0000 </r>
       <r>    -8.6869     0.0000    16.0000 </r>
       <r>    -8.5963     0.0000    16.0000 </r>
       <r>    -8.5057     0.0000    16.0000 </r>
       <r>    -8.4151     0.0000    16.0000 </r>
       <r>    -8.3245     0.0000    16.0000 </r>
       <r>    -8.2339     0.0001    16.0000 </r>
       <r>    -8.1433     0.0010    16.0001 </r>
       <r>    -8.0526     0.0129    16.0013 </r>
       <r>    -7.9620     0.1078    16.0110 </r>
       <r>    -7.8714     0.6024    16.0656 </r>
       <r>    -7.7808     2.2613    16.2705 </r>
       <r>    -7.6902     5.7037    16.7873 </r>
       <r>    -7.5996     9.6727    17.6637 </r>
       <r>    -7.5090    11.0338    18.6634 </r>
       <r>    -7.4184     8.4895    19.4326 </r>
       <r>    -7.3278     4.5822    19.8478 </r>
       <r>    -7.2372     2.6554    20.0884 </r>
       <r>    -7.1466     4.3795    20.4852 </r>
       <r>    -7.0560     9.5981    21.3549 </r>
       <r>    -6.9654    15.2113    22.7331 </r>
       <r>    -6.8748    16.2947    24.2095 </r>
       <r>    -6.7842    11.7438    25.2736 </r>
       <r>    -6.6935     5.6916    25.7893 </r>
       <r>    -6.6029     1.8558    25.9574 </r>
       <r>    -6.5123     0.4262    25.9960 </r>
       <r>    -6.4217     0.2285    26.0167 </r>
       <r>    -6.3311     0.9412    26.1020 </r>
       <r>    -6.2405     3.4795    26.4173 </r>
       <r>    -6.1499     8.6969    27.2053 </r>
       <r>    -6.0593    14.6163    28.5296 </r>
       <r>    -5.9687    16.5203    30.0264 </r>
       <r>    -5.8781    12.5585    31.1643 </r>
       <r>    -5.7875     6.4199    31.7460 </r>
       <r>    -5.6969     2.2061    31.9459 </r>
       <r>    -5.6063     0.5093    31.9920 </r>
       <r>    -5.5157     0.0789    31.9992 </r>
       <r>    -5.4251     0.0082    31.9999 </r>
       <r>    -5.3345     0.0006    32.0000 </r>
       <r>    -5.2438     0.0000    32.0000 </r>
       <r>    -5.1532     0.0000    32.0000 </r>
       <r>    -5.0626     0.0000    32.0000 </r>
       <r>    -4.9720     0.0000    32.0000 </r>
       <r>    -4.8814     0.0000    32.0000 </r>
       <r>    -4.7908     0.0000    32.0000 </r>
       <r>    -4.7002     0.0000    32.0000 </r>
       <r>    -4.6096     0.0000    32.0000 </r>
       <r>    -4.5190     0.0000    32.0000 </r>
       <r>    -4.4284     0.0000    32.0000 </r>
       <r>    -4.3378     0.0000    32.0000 </r>
       <r>    -4.2472     0.0000    32.0000 </r>
       <r>    -4.1566     0.0000    32.0000 </r>
       <r>    -4.0660     0.0000    32.0000 </r>
       <r>    -3.9754     0.0000    32.0000 </r>
       <r>    -3.8848     0.0000    32.0000 </r>
       <r>    -3.7941     0.0000    32.0000 </r>
       <r>    -3.7035     0.0000    32.0000 </r>
       <r>    -3.6129     0.0000    32.0000 </r>
       <r>    -3.5223     0.0000    32.0000 </r>
       <r>    -3.4317     0.0000    32.0000 </r>
       <r>    -3.3411     0.0000    32.0000 </r>
       <r>    -3.2505     0.0000    32.0000 </r>
       <r>    -3.1599     0.0000    32.0000 </r>
       <r>    -3.0693     0.0000    32.0000 </r>
       <r>    -2.9787     0.0000    32.0000 </r>
       <r>    -2.8881     0.0000    32.0000 </r>
       <r>    -2.7975     0.0000    32.0000 </r>
       <r>    -2.7069     0.0000    32.0000 </r>
       <r>    -2.6163     0.0000    32.0000 </r>
       <r>    -2.5257     0.0000    32.0000 </r>
       <r>    -2.4350     0.0000    32.0000 </r>
       <r>    -2.3444     0.0000    32.0000 </r>
       <r>    -2.2538     0.0000    32.0000 </r>
       <r>    -2.1632     0.0000    32.0000 </r>
       <r>    -2.0726     0.0000    32.0000 </r>
       <r>    -1.9820     0.0000    32.0000 </r>
       <r>    -1.8914     0.0000    32.0000 </r>
       <r>    -1.8008     0.0003    32.0000 </r>
       <r>    -1.7102     0.0044    32.0004 </r>
       <r>    -1.6196     0.0391    32.0040 </r>
       <r>    -1.5290     0.2335    32.0251 </r>
       <r>    -1.4384     0.9354    32.1099 </r>
       <r>    -1.3478     2.5181    32.3380 </r>
       <r>    -1.2572     4.5574    32.7510 </r>
       <r>    -1.1666     5.5468    33.2535 </r>
       <r>    -1.0760     4.5406    33.6650 </r>
       <r>    -0.9853     2.4997    33.8914 </r>
       <r>    -0.8947     0.9251    33.9753 </r>
       <r>    -0.8041     0.2300    33.9961 </r>
       <r>    -0.7135     0.0384    33.9996 </r>
       <r>    -0.6229     0.0043    34.0000 </r>
       <r>    -0.5323     0.0003    34.0000 </r>
       <r>    -0.4417     0.0003    34.0000 </r>
       <r>    -0.3511     0.0049    34.0005 </r>
       <r>    -0.2605     0.0512    34.0051 </r>
       <r>    -0.1699     0.3586    34.0376 </r>
       <r>    -0.0793     1.6856    34.1903 </r>
       <r>     0.0113     5.3226    34.6726 </r>
       <r>     0.1019    11.2978    35.6962 </r>
       <r>     0.1925    16.1266    37.1574 </r>
       <r>     0.2831    15.4828    38.5603 </r>
       <r>     0.3737     9.9979    39.4661 </r>
       <r>     0.4644     4.3412    39.8595 </r>
       <r>     0.5550     1.2670    39.9743 </r>
       <r>     0.6456     0.2484    39.9968 </r>
       <r>     0.7362     0.0327    39.9997 </r>
       <r>     0.8268     0.0029    40.0000 </r>
       <r>     0.9174     0.0002    40.0000 </r>
       <r>     1.0080     0.0000    40.0000 </r>
       <r>     1.0986     0.0000    40.0000 </r>
       <r>     1.1892     0.0000    40.0000 </r>
       <r>     1.2798     0.0000    40.0000 </r>
       <r>     1.3704     0.0000    40.0000 </r>
       <r>     1.4610     0.0000    40.0000 </r>
       <r>     1.5516     0.0000    40.0000 </r>
       <r>     1.6422     0.0000    40.0000 </r>
       <r>     1.7328     0.0000    40.0000 </r>
       <r>     1.8235     0.0000    40.0000 </r>
       <r>     1.9141     0.0000    40.0000 </r>
       <r>     2.0047     0.0000    40.0000 </r>
       <r>     2.0953     0.0000    40.0000 </r>
       <r>     2.1859     0.0000    40.0000 </r>
      </set>
     </set>
    </array>
   </total>
  </dos>
 </calculation>
 <structure name="finalpos" >
  <crystal>
   <varray name="basis" >
    <v>       8.00000000       0.00000000       0.00000000 </v>
    <v>       0.00000000       8.00000000       0.00000000 </v>
    <v>       0.00000000       0.00000000       8.00000000 </v>
   </varray>
   <i name="volume">    512.00000000 </i>
   <varray name="rec_basis" >
    <v>       0.12500000       0.00000000       0.00000000 </v>
    <v>       0.00000000       0.12500000       0.00000000 </v>
    <v>       0.00000000       0.00000000       0.12500000 </v>
   </varray>
  </crystal>
  <varray name="positions" >
   <v>       0.00000000       0.00000000       0.00000000 </v>
   <v>       0.12823919       0.12823919       0.12823919 </v>
   <v>       0.87176081       0.87176081       0.12823919 </v>
   <v>       0.87176081       0.12823919       0.87176081 </v>
   <v>       0.12823919       0.87176081       0.87176081 </v>
  </varray>
 </structure>
</modeling>
