   6   6   0   0
  0.8533333E+02  0.8000000E-09  0.8000000E-09  0.8000000E-09  0.5000000E-15
  1.000000000000000E-004
  CAR 
 unknown system                          
      3.32372251    -20.40299558  301     -5.37591965      1.00000000
    -20.403  0.0000E+00  0.0000E+00
    -20.324  0.0000E+00  0.0000E+00
    -20.245  0.0000E+00  0.0000E+00
    -20.166  0.0000E+00  0.0000E+00
    -20.087  0.0000E+00  0.0000E+00
    -20.008  0.0000E+00  0.0000E+00
    -19.928  0.0000E+00  0.0000E+00
    -19.849  0.0000E+00  0.0000E+00
    -19.770  0.0000E+00  0.0000E+00
    -19.691  0.0000E+00  0.0000E+00
    -19.612  0.0000E+00  0.0000E+00
    -19.533  0.1685E-14  0.1332E-15
    -19.454  0.1343E-12  0.1076E-13
    -19.375  0.7871E-11  0.6332E-12
    -19.296  0.3387E-09  0.2742E-10
    -19.217  0.1071E-07  0.8743E-09
    -19.138  0.2489E-06  0.2056E-07
    -19.058  0.4253E-05  0.3570E-06
    -18.979  0.5348E-04  0.4587E-05
    -18.900  0.4949E-03  0.4373E-04
    -18.821  0.3372E-02  0.3104E-03
    -18.742  0.1692E-01  0.1648E-02
    -18.663  0.6254E-01  0.6595E-02
    -18.584  0.1704E+00  0.2007E-01
    -18.505  0.3422E+00  0.4714E-01
    -18.426  0.5067E+00  0.8721E-01
    -18.347  0.5531E+00  0.1310E+00
    -18.268  0.4452E+00  0.1662E+00
    -18.189  0.2643E+00  0.1871E+00
    -18.109  0.1156E+00  0.1962E+00
    -18.030  0.3729E-01  0.1992E+00
    -17.951  0.8861E-02  0.1999E+00
    -17.872  0.1551E-02  0.2000E+00
    -17.793  0.2000E-03  0.2000E+00
    -17.714  0.1898E-04  0.2000E+00
    -17.635  0.1325E-05  0.2000E+00
    -17.556  0.6805E-07  0.2000E+00
    -17.477  0.2570E-08  0.2000E+00
    -17.398  0.7132E-10  0.2000E+00
    -17.319  0.1455E-11  0.2000E+00
    -17.239  0.2162E-13  0.2000E+00
    -17.160  0.2808E-15  0.2000E+00
    -17.081  0.0000E+00  0.2000E+00
    -17.002  0.0000E+00  0.2000E+00
    -16.923  0.0000E+00  0.2000E+00
    -16.844  0.0000E+00  0.2000E+00
    -16.765  0.0000E+00  0.2000E+00
    -16.686  0.0000E+00  0.2000E+00
    -16.607  0.0000E+00  0.2000E+00
    -16.528  0.0000E+00  0.2000E+00
    -16.449  0.0000E+00  0.2000E+00
    -16.369  0.0000E+00  0.2000E+00
    -16.290  0.0000E+00  0.2000E+00
    -16.211  0.0000E+00  0.2000E+00
    -16.132  0.0000E+00  0.2000E+00
    -16.053  0.0000E+00  0.2000E+00
    -15.974  0.0000E+00  0.2000E+00
    -15.895  0.0000E+00  0.2000E+00
    -15.816  0.0000E+00  0.2000E+00
    -15.737  0.0000E+00  0.2000E+00
    -15.658  0.0000E+00  0.2000E+00
    -15.579  0.0000E+00  0.2000E+00
    -15.499  0.0000E+00  0.2000E+00
    -15.420  0.0000E+00  0.2000E+00
    -15.341  0.0000E+00  0.2000E+00
    -15.262  0.0000E+00  0.2000E+00
    -15.183  0.0000E+00  0.2000E+00
    -15.104  0.0000E+00  0.2000E+00
    -15.025  0.0000E+00  0.2000E+00
    -14.946  0.1685E-14  0.2000E+00
    -14.867  0.1291E-12  0.2000E+00
    -14.788  0.7587E-11  0.2000E+00
    -14.709  0.3274E-09  0.2000E+00
    -14.629  0.1038E-07  0.2000E+00
    -14.550  0.2420E-06  0.2000E+00
    -14.471  0.4148E-05  0.2000E+00
    -14.392  0.5230E-04  0.2000E+00
    -14.313  0.4854E-03  0.2000E+00
    -14.234  0.3316E-02  0.2003E+00
    -14.155  0.1669E-01  0.2016E+00
    -14.076  0.6187E-01  0.2065E+00
    -13.997  0.1690E+00  0.2199E+00
    -13.918  0.3405E+00  0.2468E+00
    -13.839  0.5055E+00  0.2868E+00
    -13.760  0.5534E+00  0.3306E+00
    -13.680  0.4468E+00  0.3659E+00
    -13.601  0.2659E+00  0.3869E+00
    -13.522  0.1167E+00  0.3962E+00
    -13.443  0.3774E-01  0.3991E+00
    -13.364  0.8994E-02  0.3999E+00
    -13.285  0.1579E-02  0.4000E+00
    -13.206  0.2041E-03  0.4000E+00
    -13.127  0.1943E-04  0.4000E+00
    -13.048  0.1360E-05  0.4000E+00
    -12.969  0.7007E-07  0.4000E+00
    -12.890  0.2654E-08  0.4000E+00
    -12.810  0.7386E-10  0.4000E+00
    -12.731  0.1510E-11  0.4000E+00
    -12.652  0.2274E-13  0.4000E+00
    -12.573  0.2808E-15  0.4000E+00
    -12.494  0.0000E+00  0.4000E+00
    -12.415  0.0000E+00  0.4000E+00
    -12.336  0.0000E+00  0.4000E+00
    -12.257  0.0000E+00  0.4000E+00
    -12.178  0.5615E-15  0.4000E+00
    -12.099  0.4703E-13  0.4000E+00
    -12.020  0.2975E-11  0.4000E+00
    -11.940  0.1381E-09  0.4000E+00
    -11.861  0.4710E-08  0.4000E+00
    -11.782  0.1181E-06  0.4000E+00
    -11.703  0.2177E-05  0.4000E+00
    -11.624  0.2951E-04  0.4000E+00
    -11.545  0.2945E-03  0.4000E+00
    -11.466  0.2163E-02  0.4002E+00
    -11.387  0.1170E-01  0.4011E+00
    -11.308  0.4664E-01  0.4048E+00
    -11.229  0.1370E+00  0.4156E+00
    -11.150  0.2965E+00  0.4391E+00
    -11.070  0.4732E+00  0.4765E+00
    -10.991  0.5568E+00  0.5206E+00
    -10.912  0.4831E+00  0.5588E+00
    -10.833  0.3091E+00  0.5832E+00
    -10.754  0.1458E+00  0.5947E+00
    -10.675  0.5067E-01  0.5987E+00
    -10.596  0.1298E-01  0.5998E+00
    -10.517  0.2450E-02  0.6000E+00
    -10.438  0.3437E-03  0.6000E+00
    -10.359  0.7565E-04  0.6000E+00
    -10.280  0.3935E-03  0.6000E+00
    -10.201  0.2757E-02  0.6003E+00
    -10.121  0.1432E-01  0.6014E+00
    -10.042  0.5479E-01  0.6057E+00
     -9.963  0.1545E+00  0.6179E+00
     -9.884  0.3211E+00  0.6433E+00
     -9.805  0.4921E+00  0.6823E+00
     -9.726  0.5561E+00  0.7262E+00
     -9.647  0.4633E+00  0.7629E+00
     -9.568  0.2846E+00  0.7854E+00
     -9.489  0.1289E+00  0.7956E+00
     -9.410  0.4303E-01  0.7990E+00
     -9.331  0.1058E-01  0.7998E+00
     -9.251  0.1918E-02  0.8000E+00
     -9.172  0.2559E-03  0.8000E+00
     -9.093  0.2514E-04  0.8000E+00
     -9.014  0.1818E-05  0.8000E+00
     -8.935  0.9889E-07  0.8000E+00
     -8.856  0.6387E-07  0.8000E+00
     -8.777  0.1184E-05  0.8000E+00
     -8.698  0.1717E-04  0.8000E+00
     -8.619  0.1832E-03  0.8000E+00
     -8.540  0.1438E-02  0.8001E+00
     -8.461  0.8316E-02  0.8008E+00
     -8.381  0.3542E-01  0.8036E+00
     -8.302  0.1112E+00  0.8124E+00
     -8.223  0.2572E+00  0.8327E+00
     -8.144  0.4386E+00  0.8674E+00
     -8.065  0.5516E+00  0.9110E+00
     -7.986  0.5114E+00  0.9515E+00
     -7.907  0.3496E+00  0.9791E+00
     -7.828  0.1762E+00  0.9931E+00
     -7.749  0.6547E-01  0.9982E+00
     -7.670  0.1793E-01  0.9997E+00
     -7.591  0.3616E-02  0.1000E+01
     -7.511  0.5373E-03  0.1000E+01
     -7.432  0.5877E-04  0.1000E+01
     -7.353  0.4732E-05  0.1000E+01
     -7.274  0.2804E-06  0.1000E+01
     -7.195  0.1787E-07  0.1000E+01
     -7.116  0.1400E-06  0.1000E+01
     -7.037  0.2531E-05  0.1000E+01
     -6.958  0.3375E-04  0.1000E+01
     -6.879  0.3312E-03  0.1000E+01
     -6.800  0.2392E-02  0.1000E+01
     -6.721  0.1273E-01  0.1001E+01
     -6.641  0.4987E-01  0.1005E+01
     -6.562  0.1440E+00  0.1017E+01
     -6.483  0.3066E+00  0.1041E+01
     -6.404  0.4812E+00  0.1079E+01
     -6.325  0.5569E+00  0.1123E+01
     -6.246  0.4752E+00  0.1160E+01
     -6.167  0.2989E+00  0.1184E+01
     -6.088  0.1386E+00  0.1195E+01
     -6.009  0.4740E-01  0.1199E+01
     -5.930  0.1194E-01  0.1200E+01
     -5.851  0.2216E-02  0.1200E+01
     -5.772  0.3029E-03  0.1200E+01
     -5.692  0.3048E-04  0.1200E+01
     -5.613  0.2257E-05  0.1200E+01
     -5.534  0.1229E-06  0.1200E+01
     -5.455  0.4924E-08  0.1200E+01
     -5.376  0.1450E-09  0.1200E+01
     -5.297  0.3135E-11  0.1200E+01
     -5.218  0.4997E-13  0.1200E+01
     -5.139  0.5615E-15  0.1200E+01
     -5.060  0.0000E+00  0.1200E+01
     -4.981  0.0000E+00  0.1200E+01
     -4.902  0.0000E+00  0.1200E+01
     -4.822  0.0000E+00  0.1200E+01
     -4.743  0.0000E+00  0.1200E+01
     -4.664  0.0000E+00  0.1200E+01
     -4.585  0.0000E+00  0.1200E+01
     -4.506  0.0000E+00  0.1200E+01
     -4.427  0.0000E+00  0.1200E+01
     -4.348  0.0000E+00  0.1200E+01
     -4.269  0.0000E+00  0.1200E+01
     -4.190  0.0000E+00  0.1200E+01
     -4.111  0.0000E+00  0.1200E+01
     -4.032  0.0000E+00  0.1200E+01
     -3.952  0.0000E+00  0.1200E+01
     -3.873  0.0000E+00  0.1200E+01
     -3.794  0.0000E+00  0.1200E+01
     -3.715  0.0000E+00  0.1200E+01
     -3.636  0.0000E+00  0.1200E+01
     -3.557  0.0000E+00  0.1200E+01
     -3.478  0.0000E+00  0.1200E+01
     -3.399  0.0000E+00  0.1200E+01
     -3.320  0.0000E+00  0.1200E+01
     -3.241  0.0000E+00  0.1200E+01
     -3.162  0.0000E+00  0.1200E+01
     -3.082  0.0000E+00  0.1200E+01
     -3.003  0.0000E+00  0.1200E+01
     -2.924  0.0000E+00  0.1200E+01
     -2.845  0.0000E+00  0.1200E+01
     -2.766  0.0000E+00  0.1200E+01
     -2.687  0.0000E+00  0.1200E+01
     -2.608  0.0000E+00  0.1200E+01
     -2.529  0.0000E+00  0.1200E+01
     -2.450  0.0000E+00  0.1200E+01
     -2.371  0.0000E+00  0.1200E+01
     -2.292  0.0000E+00  0.1200E+01
     -2.213  0.0000E+00  0.1200E+01
     -2.133  0.0000E+00  0.1200E+01
     -2.054  0.0000E+00  0.1200E+01
     -1.975  0.0000E+00  0.1200E+01
     -1.896  0.0000E+00  0.1200E+01
     -1.817  0.4211E-15  0.1200E+01
     -1.738  0.3594E-13  0.1200E+01
     -1.659  0.2313E-11  0.1200E+01
     -1.580  0.1095E-09  0.1200E+01
     -1.501  0.3809E-08  0.1200E+01
     -1.422  0.9744E-07  0.1200E+01
     -1.343  0.1834E-05  0.1200E+01
     -1.263  0.2541E-04  0.1200E+01
     -1.184  0.2596E-03  0.1200E+01
     -1.105  0.1959E-02  0.1200E+01
     -1.026  0.1094E-01  0.1201E+01
     -0.947  0.4550E-01  0.1205E+01
     -0.868  0.1418E+00  0.1216E+01
     -0.789  0.3345E+00  0.1242E+01
     -0.710  0.6069E+00  0.1290E+01
     -0.631  0.8616E+00  0.1358E+01
     -0.552  0.9722E+00  0.1435E+01
     -0.473  0.8777E+00  0.1505E+01
     -0.393  0.6303E+00  0.1555E+01
     -0.314  0.3547E+00  0.1583E+01
     -0.235  0.1537E+00  0.1595E+01
     -0.156  0.5051E-01  0.1599E+01
     -0.077  0.1245E-01  0.1600E+01
      0.002  0.2282E-02  0.1600E+01
      0.081  0.3101E-03  0.1600E+01
      0.160  0.3113E-04  0.1600E+01
      0.239  0.2304E-05  0.1600E+01
      0.318  0.1256E-06  0.1600E+01
      0.397  0.6356E-08  0.1600E+01
      0.477  0.3803E-07  0.1600E+01
      0.556  0.8010E-06  0.1600E+01
      0.635  0.1251E-04  0.1600E+01
      0.714  0.1447E-03  0.1600E+01
      0.793  0.1239E-02  0.1600E+01
      0.872  0.7876E-02  0.1601E+01
      0.951  0.3722E-01  0.1604E+01
      1.030  0.1310E+00  0.1614E+01
      1.109  0.3438E+00  0.1641E+01
      1.188  0.6739E+00  0.1695E+01
      1.267  0.9874E+00  0.1773E+01
      1.346  0.1082E+01  0.1858E+01
      1.426  0.8874E+00  0.1928E+01
      1.505  0.5442E+00  0.1971E+01
      1.584  0.2494E+00  0.1991E+01
      1.663  0.8531E-01  0.1998E+01
      1.742  0.2175E-01  0.2000E+01
      1.821  0.4128E-02  0.2000E+01
      1.900  0.5820E-03  0.2000E+01
      1.979  0.6087E-04  0.2000E+01
      2.058  0.4714E-05  0.2000E+01
      2.137  0.2700E-06  0.2000E+01
      2.216  0.1142E-07  0.2000E+01
      2.296  0.3563E-09  0.2000E+01
      2.375  0.8192E-11  0.2000E+01
      2.454  0.1387E-12  0.2000E+01
      2.533  0.1685E-14  0.2000E+01
      2.612  0.0000E+00  0.2000E+01
      2.691  0.0000E+00  0.2000E+01
      2.770  0.0000E+00  0.2000E+01
      2.849  0.0000E+00  0.2000E+01
      2.928  0.0000E+00  0.2000E+01
      3.007  0.0000E+00  0.2000E+01
      3.086  0.0000E+00  0.2000E+01
      3.166  0.0000E+00  0.2000E+01
      3.245  0.0000E+00  0.2000E+01
      3.324  0.0000E+00  0.2000E+01
