    6    6   10    1
  0.8533333E+02  0.8000000E-09  0.8000000E-09  0.8000000E-09  0.5000000E-15
  1.000000000000000E-004
  CAR 
 unknown system                          
   12    1   10
 
  0.0000000E+00  0.0000000E+00  0.0000000E+00  0.1000000E+01
   1      -18.402996
   2      -13.815089
   3      -11.028253
   4       -9.773352
   5       -8.084730
   6       -6.366336
   7       -0.662604
   8       -0.513252
   9        1.261078
  10        1.323723
