       N       E                     dE             d eps       ncg     rms          rms(c)
DAV:   1     0.630282645040E+02    0.63028E+02   -0.29826E+03    20   0.534E+02
DAV:   2    -0.257777717788E+02   -0.88806E+02   -0.88494E+02    38   0.158E+02
DAV:   3    -0.359628327483E+02   -0.10185E+02   -0.10173E+02    40   0.638E+01
DAV:   4    -0.360313624233E+02   -0.68530E-01   -0.68514E-01    22   0.497E+00
DAV:   5    -0.360322201253E+02   -0.85770E-03   -0.85769E-03    32   0.585E-01    0.932E+00
DAV:   6    -0.327599475187E+02    0.32723E+01   -0.58404E+00    22   0.159E+01    0.438E+00
DAV:   7    -0.320250761626E+02    0.73487E+00   -0.23157E+00    30   0.926E+00    0.187E+00
DAV:   8    -0.319091088425E+02    0.11597E+00   -0.29386E-01    24   0.417E+00    0.513E-01
DAV:   9    -0.319027286197E+02    0.63802E-02   -0.17627E-02    30   0.922E-01    0.319E-01
DAV:  10    -0.319038881758E+02   -0.11596E-02   -0.55565E-02    24   0.139E+00    0.192E-01
DAV:  11    -0.319046150358E+02   -0.72686E-03   -0.23816E-03    20   0.397E-01    0.133E-01
DAV:  12    -0.319086615554E+02   -0.40465E-02   -0.20809E-03    20   0.338E-01    0.412E-02
DAV:  13    -0.319116035571E+02   -0.29420E-02   -0.15363E-03    20   0.243E-01    0.420E-02
DAV:  14    -0.319125646415E+02   -0.96108E-03   -0.28424E-04    22   0.112E-01    0.192E-02
DAV:  15    -0.319127699834E+02   -0.20534E-03   -0.16046E-04    24   0.838E-02    0.111E-02
DAV:  16    -0.319128664413E+02   -0.96458E-04   -0.32635E-05    20   0.358E-02
   1 F= -.31912866E+02 E0= -.31912866E+02  d E =-.319129E+02
       N       E                     dE             d eps       ncg     rms          rms(c)
DAV:   1    -0.318763717137E+02    0.36398E-01   -0.24270E+00    20   0.142E+01    0.476E-01
DAV:   2    -0.318758829581E+02    0.48876E-03   -0.38526E-02    22   0.151E+00    0.316E-01
DAV:   3    -0.318739695131E+02    0.19134E-02   -0.90772E-03    20   0.830E-01    0.531E-02
DAV:   4    -0.318739388557E+02    0.30657E-04   -0.13342E-03    24   0.270E-01    0.207E-02
DAV:   5    -0.318739433075E+02   -0.44519E-05   -0.88581E-05    24   0.719E-02
   2 F= -.31873943E+02 E0= -.31873943E+02  d E =0.389231E-01
       N       E                     dE             d eps       ncg     rms          rms(c)
DAV:   1    -0.319177996538E+02   -0.43861E-01   -0.14554E+00    20   0.110E+01    0.363E-01
DAV:   2    -0.319176629026E+02    0.13675E-03   -0.24240E-02    20   0.117E+00    0.246E-01
DAV:   3    -0.319166077195E+02    0.10552E-02   -0.60423E-03    20   0.664E-01    0.540E-02
DAV:   4    -0.319165359957E+02    0.71724E-04   -0.90133E-04    24   0.240E-01
   3 F= -.31916536E+02 E0= -.31916536E+02  d E =-.366955E-02
       N       E                     dE             d eps       ncg     rms          rms(c)
DAV:   1    -0.319195812730E+02   -0.29736E-02   -0.36431E-01    20   0.553E+00    0.240E-01
DAV:   2    -0.319179112326E+02    0.16700E-02   -0.53346E-03    20   0.669E-01    0.120E-01
DAV:   3    -0.319176208802E+02    0.29035E-03   -0.45883E-03    22   0.419E-01    0.456E-02
DAV:   4    -0.319175608641E+02    0.60016E-04   -0.26769E-04    22   0.110E-01
   4 F= -.31917561E+02 E0= -.31917561E+02  d E =-.102487E-02
       N       E                     dE             d eps       ncg     rms          rms(c)
DAV:   1    -0.319195883464E+02   -0.19675E-02   -0.69250E-02    20   0.244E+00    0.109E-01
DAV:   2    -0.319192503389E+02    0.33801E-03   -0.10057E-03    22   0.287E-01    0.545E-02
DAV:   3    -0.319192148152E+02    0.35524E-04   -0.96616E-04    20   0.192E-01
   5 F= -.31919215E+02 E0= -.31919215E+02  d E =-.267882E-02
