<?xml version="1.0" encoding="ISO-8859-1"?>
<modeling>
 <generator>
  <i name="program" type="string">vasp </i>
  <i name="version" type="string">5.2.12  </i>
  <i name="subversion" type="string">11Nov11 complex                                                      parallel </i>
  <i name="platform" type="string">LinuxIFC </i>
  <i name="date" type="string">2012 11 03 </i>
  <i name="time" type="string">01:30:19 </i>
 </generator>
 <incar>
  <i type="string" name="PREC">normal</i>
  <i type="int" name="IBRION">     2</i>
  <i type="int" name="NSW">    10</i>
  <i name="ENCUT">    350.00000000</i>
  <i type="int" name="ISMEAR">     0</i>
 </incar>
 <kpoints>
  <generation param="Monkhorst-Pack">
   <v type="int" name="divisions">       1        1        1 </v>
   <v name="usershift">      0.00000000       0.00000000       0.00000000 </v>
   <v name="genvec1">      1.00000000       0.00000000       0.00000000 </v>
   <v name="genvec2">      0.00000000       1.00000000       0.00000000 </v>
   <v name="genvec3">      0.00000000       0.00000000       1.00000000 </v>
   <v name="shift">      0.00000000       0.00000000       0.00000000 </v>
  </generation>
  <varray name="kpointlist" >
   <v>       0.00000000       0.00000000       0.00000000 </v>
  </varray>
  <varray name="weights" >
   <v>       1.00000000 </v>
  </varray>
 </kpoints>
 <parameters>
  <separator name="general" >
   <i type="string" name="SYSTEM">unknown system</i>
   <i type="logical" name="LCOMPAT"> F  </i>
  </separator>
  <separator name="electronic" >
   <i type="string" name="PREC">normal</i>
   <i name="ENMAX">    350.00000000</i>
   <i name="ENAUG">    644.87300000</i>
   <i name="EDIFF">      0.00010000</i>
   <i type="int" name="IALGO">    38</i>
   <i type="int" name="IWAVPR">    11</i>
   <i type="int" name="NBANDS">    10</i>
   <i name="NELECT">     12.00000000</i>
   <i type="int" name="TURBO">     0</i>
   <i type="int" name="IRESTART">     0</i>
   <i type="int" name="NREBOOT">     0</i>
   <i type="int" name="NMIN">     0</i>
   <i name="EREF">      0.00000000</i>
   <separator name="electronic smearing" >
    <i type="int" name="ISMEAR">     0</i>
    <i name="SIGMA">      0.20000000</i>
    <i name="KSPACING">      0.50000000</i>
    <i type="logical" name="KGAMMA"> T  </i>
   </separator>
   <separator name="electronic projectors" >
    <i type="logical" name="LREAL"> F  </i>
    <v name="ROPT">      0.00000000      0.00000000</v>
    <i type="int" name="LMAXPAW">  -100</i>
    <i type="int" name="LMAXMIX">     2</i>
    <i type="logical" name="NLSPLINE"> F  </i>
   </separator>
   <separator name="electronic startup" >
    <i type="int" name="ISTART">     0</i>
    <i type="int" name="ICHARG">     2</i>
    <i type="int" name="INIWAV">     1</i>
   </separator>
   <separator name="electronic spin" >
    <i type="int" name="ISPIN">     1</i>
    <i type="logical" name="LNONCOLLINEAR"> F  </i>
    <v name="MAGMOM">      1.00000000      1.00000000      1.00000000      1.00000000      1.00000000      1.00000000</v>
    <i name="NUPDOWN">     -1.00000000</i>
    <i type="logical" name="LSORBIT"> F  </i>
    <v name="SAXIS">      0.00000000      0.00000000      1.00000000</v>
    <i type="logical" name="LSPIRAL"> F  </i>
    <v name="QSPIRAL">      0.00000000      0.00000000      0.00000000</v>
    <i type="logical" name="LZEROZ"> F  </i>
   </separator>
   <separator name="electronic exchange-correlation" >
    <i type="logical" name="LASPH"> F  </i>
    <i type="logical" name="LMETAGGA"> F  </i>
   </separator>
   <separator name="electronic convergence" >
    <i type="int" name="NELM">    60</i>
    <i type="int" name="NELMDL">    -5</i>
    <i type="int" name="NELMIN">     2</i>
    <i name="ENINI">    350.00000000</i>
    <separator name="electronic convergence detail" >
     <i type="logical" name="LDIAG"> T  </i>
     <i type="logical" name="LSUBROT"> T  </i>
     <i name="WEIMIN">      0.00100000</i>
     <i name="EBREAK">      0.00000250</i>
     <i name="DEPER">      0.30000000</i>
     <i type="int" name="NRMM">     4</i>
     <i name="TIME">      0.40000000</i>
    </separator>
   </separator>
   <separator name="electronic mixer" >
    <i name="AMIX">      0.40000000</i>
    <i name="BMIX">      1.00000000</i>
    <i name="AMIN">      0.10000000</i>
    <i name="AMIX_MAG">      1.60000000</i>
    <i name="BMIX_MAG">      1.00000000</i>
    <separator name="electronic mixer details" >
     <i type="int" name="IMIX">     4</i>
     <i type="int" name="MAXMIX">   -45</i>
     <i name="WC">    100.00000000</i>
     <i type="int" name="INIMIX">     1</i>
     <i type="int" name="MIXPRE">     1</i>
     <i type="int" name="MREMOVE">     5</i>
    </separator>
   </separator>
   <separator name="electronic dipolcorrection" >
    <i type="logical" name="LDIPOL"> F  </i>
    <i type="logical" name="LMONO"> F  </i>
    <i type="int" name="IDIPOL">     0</i>
    <i name="EPSILON">      1.00000000</i>
    <v name="DIPOL">   -100.00000000   -100.00000000   -100.00000000</v>
    <i name="EFIELD">      0.00000000</i>
   </separator>
  </separator>
  <separator name="grids" >
   <i type="int" name="NGX">    40</i>
   <i type="int" name="NGY">    40</i>
   <i type="int" name="NGZ">    40</i>
   <i type="int" name="NGXF">    80</i>
   <i type="int" name="NGYF">    80</i>
   <i type="int" name="NGZF">    80</i>
   <i type="logical" name="ADDGRID"> F  </i>
  </separator>
  <separator name="ionic" >
   <i type="int" name="NSW">    10</i>
   <i type="int" name="IBRION">     2</i>
   <i type="int" name="ISIF">     2</i>
   <i name="PSTRESS">      0.00000000</i>
   <i name="EDIFFG">      0.00100000</i>
   <i type="int" name="NFREE">     1</i>
   <i name="POTIM">      0.50000000</i>
   <i name="SMASS">     -3.00000000</i>
   <i name="SCALEE">      1.00000000</i>
  </separator>
  <separator name="ionic md" >
   <i name="TEBEG">      0.00010000</i>
   <i name="TEEND">      0.00010000</i>
   <i type="int" name="NBLOCK">     1</i>
   <i type="int" name="KBLOCK">    10</i>
   <i type="int" name="NPACO">   256</i>
   <i name="APACO">     16.00000000</i>
  </separator>
  <separator name="symmetry" >
   <i type="int" name="ISYM">     2</i>
   <i name="SYMPREC">      0.00001000</i>
  </separator>
  <separator name="dos" >
   <i type="logical" name="LORBIT"> F  </i>
   <v name="RWIGS">     -1.00000000     -1.00000000</v>
   <i type="int" name="NEDOS">   301</i>
   <i name="EMIN">     10.00000000</i>
   <i name="EMAX">    -10.00000000</i>
   <i name="EFERMI">      0.00000000</i>
  </separator>
  <separator name="writing" >
   <i type="int" name="NWRITE">     2</i>
   <i type="logical" name="LWAVE"> T  </i>
   <i type="logical" name="LCHARG"> T  </i>
   <i type="logical" name="LPARD"> F  </i>
   <i type="logical" name="LVTOT"> F  </i>
   <i type="logical" name="LVHAR"> F  </i>
   <i type="logical" name="LELF"> F  </i>
   <i type="logical" name="LOPTICS"> F  </i>
   <v name="STM">      0.00000000      0.00000000      0.00000000      0.00000000      0.00000000      0.00000000      0.00000000</v>
  </separator>
  <separator name="performance" >
   <i type="int" name="NPAR">     1</i>
   <i type="int" name="NSIM">     4</i>
   <i type="int" name="NBLK">    -1</i>
   <i type="logical" name="LPLANE"> T  </i>
   <i type="logical" name="LSCALAPACK"> F  </i>
   <i type="logical" name="LSCAAWARE"> F  </i>
   <i type="logical" name="LSCALU"> F  </i>
   <i type="logical" name="LASYNC"> F  </i>
   <i type="logical" name="LORBITALREAL"> F  </i>
  </separator>
  <separator name="miscellaneous" >
   <i type="int" name="IDIOT">     3</i>
   <i type="logical" name="LMUSIC"> F  </i>
   <v name="POMASS">      1.00000000     12.01100000</v>
   <v name="DARWINR">      0.00000000      0.00000000</v>
   <v name="DARWINV">      1.00000000      1.00000000</v>
   <i type="logical" name="LCORR"> T  </i>
  </separator>
  <i type="logical" name="GGA_COMPAT"> T  </i>
  <i type="logical" name="LBERRY"> F  </i>
  <i type="int" name="ICORELEVEL">     0</i>
  <i type="logical" name="LDAU"> F  </i>
  <i type="int" name="I_CONSTRAINED_M">     0</i>
  <separator name="electronic exchange-correlation" >
   <i type="string" name="GGA">--</i>
   <i type="int" name="VOSKOWN">     0</i>
   <i type="logical" name="LHFCALC"> F  </i>
   <i type="string" name="PRECFOCK"></i>
   <i type="logical" name="LHFONE"> F  </i>
   <i type="logical" name="LRHFCALC"> F  </i>
   <i type="logical" name="LTHOMAS"> F  </i>
   <i type="logical" name="LMODELHF"> F  </i>
   <i name="ENCUT4O">     -1.00000000</i>
   <i type="int" name="EXXOEP">     0</i>
   <i type="int" name="FOURORBIT">     0</i>
   <i name="AEXX">      0.00000000</i>
   <i name="HFALPHA">      0.00000000</i>
   <i name="ALDAX">      1.00000000</i>
   <i name="AGGAX">      1.00000000</i>
   <i name="ALDAC">      1.00000000</i>
   <i name="AGGAC">      1.00000000</i>
   <i type="int" name="NKREDX">     1</i>
   <i type="int" name="NKREDY">     1</i>
   <i type="int" name="NKREDZ">     1</i>
   <i type="logical" name="SHIFTRED"> F  </i>
   <i type="logical" name="ODDONLY"> F  </i>
   <i type="logical" name="EVENONLY"> F  </i>
   <i type="int" name="LMAXFOCK">     0</i>
   <i type="int" name="NMAXFOCKAE">     0</i>
   <i type="logical" name="LFOCKAEDFT"> F  </i>
   <i name="HFSCREEN">      0.00000000</i>
   <i name="HFSCREENC">      0.00000000</i>
  </separator>
  <separator name="vdW DFT" >
   <i type="logical" name="LUSE_VDW"> F  </i>
   <i name="Zab_VDW">     -0.84910000</i>
   <i name="PARAM1">      0.12340000</i>
   <i name="PARAM2">      1.00000000</i>
   <i name="PARAM3">      0.00000000</i>
  </separator>
  <separator name="model GW" >
   <i type="int" name="MODEL_GW">     0</i>
   <i name="MODEL_EPS0">     51.20000000</i>
   <i name="MODEL_ALPHA">      1.00000000</i>
  </separator>
  <separator name="linear response parameters" >
   <i type="logical" name="LEPSILON"> F  </i>
   <i type="logical" name="LRPA"> F  </i>
   <i type="logical" name="LNABLA"> F  </i>
   <i type="logical" name="LVEL"> F  </i>
   <i type="int" name="KINTER">     0</i>
   <i name="CSHIFT">      0.10000000</i>
   <i name="OMEGAMAX">     -1.00000000</i>
  </separator>
  <separator name="orbital magnetization" >
   <i type="logical" name="NUCIND"> F  </i>
   <v name="MAGPOS">      0.00000000      0.00000000      0.00000000</v>
   <i type="logical" name="LNICSALL"> T  </i>
   <i type="logical" name="ORBITALMAG"> F  </i>
   <i type="logical" name="LMAGBLOCH"> F  </i>
   <i type="logical" name="LCHIMAG"> F  </i>
   <i type="logical" name="LGAUGE"> T  </i>
   <i type="int" name="MAGATOM">     0</i>
   <v name="MAGDIPOL">      0.00000000      0.00000000      0.00000000</v>
   <v name="AVECCONST">      0.00000000      0.00000000      0.00000000</v>
  </separator>
  <separator name="response functions" >
   <i type="logical" name="LADDER"> F  </i>
   <i type="logical" name="LHARTREE"> T  </i>
   <i type="int" name="IBSE">     0</i>
   <i type="logical" name="LTCTE"> F  </i>
   <i type="logical" name="LTETE"> F  </i>
   <i type="logical" name="LFXCEPS"> F  </i>
   <i type="logical" name="L2ORDER"> F  </i>
   <i type="logical" name="LUSEW"> F  </i>
   <i name="ENCUTGW">     -2.00000000</i>
   <i name="ENCUTGWSOFT">     -2.00000000</i>
   <i name="ENCUTLF">     -1.00000000</i>
   <i type="int" name="LMAXMP2">    -1</i>
   <i name="SCISSOR">      0.00000000</i>
   <i type="int" name="NOMEGA">     0</i>
   <i type="int" name="NOMEGAR">     0</i>
   <i type="int" name="NBANDSGW">    -1</i>
   <i type="int" name="NBANDSO">    -1</i>
   <i type="int" name="NBANDSV">    -1</i>
   <i name="OPTEMAX">      0.00000000</i>
   <i type="int" name="NELM">     1</i>
   <i type="int" name="DIM">     3</i>
   <i type="int" name="ANTIRES">     0</i>
   <i name="OMEGAMAX">    -30.00000000</i>
   <i name="OMEGATL">   -200.00000000</i>
   <i type="int" name="OMEGAGRID">     0</i>
   <i name="CSHIFT">     -0.10000000</i>
   <i type="logical" name="SELFENERGY"> F  </i>
   <i type="logical" name="LSPECTRAL"> F  </i>
   <i type="logical" name="ODDONLYGW"> F  </i>
   <i type="logical" name="EVENONLYGW"> F  </i>
   <i type="int" name="NKREDLFX">     1</i>
   <i type="int" name="NKREDLFY">     1</i>
   <i type="int" name="NKREDLFZ">     1</i>
   <i type="int" name="MAXMEM">  1800</i>
   <i type="int" name="TELESCOPE">     0</i>
  </separator>
 </parameters>
 <atominfo>
  <atoms>       6 </atoms>
  <types>       2 </types>
  <array name="atoms" >
   <dimension dim="1">ion</dimension>
   <field type="string">element</field>
   <field type="int">atomtype</field>
   <set>
    <rc><c>H </c><c>   1</c></rc>
    <rc><c>H </c><c>   1</c></rc>
    <rc><c>H </c><c>   1</c></rc>
    <rc><c>H </c><c>   1</c></rc>
    <rc><c>C </c><c>   2</c></rc>
    <rc><c>C </c><c>   2</c></rc>
   </set>
  </array>
  <array name="atomtypes" >
   <dimension dim="1">type</dimension>
   <field type="int">atomspertype</field>
   <field type="string">element</field>
   <field>mass</field>
   <field>valence</field>
   <field type="string">pseudopotential</field>
   <set>
    <rc><c>   4</c><c>H </c><c>      1.00000000</c><c>      1.00000000</c><c> PAW_PBE H 15Jun2001                    </c></rc>
    <rc><c>   2</c><c>C </c><c>     12.01100000</c><c>      4.00000000</c><c> PAW_PBE C 08Apr2002                    </c></rc>
   </set>
  </array>
 </atominfo>
 <structure name="initialpos" >
  <crystal>
   <varray name="basis" >
    <v>       8.00000000       0.00000000       0.00000000 </v>
    <v>       0.00000000       8.00000000       0.00000000 </v>
    <v>       0.00000000       0.00000000       8.00000000 </v>
   </varray>
   <i name="volume">    512.00000000 </i>
   <varray name="rec_basis" >
    <v>       0.12500000       0.00000000       0.00000000 </v>
    <v>       0.00000000       0.12500000       0.00000000 </v>
    <v>       0.00000000       0.00000000       0.12500000 </v>
   </varray>
  </crystal>
  <varray name="positions" >
   <v>       0.00000000       0.11535400       0.15471187 </v>
   <v>       0.00000000       0.88464600       0.15471187 </v>
   <v>       0.00000000       0.11535400       0.84528813 </v>
   <v>       0.00000000       0.88464600       0.84528813 </v>
   <v>       0.00000000       0.00000000       0.08343500 </v>
   <v>       0.00000000       0.00000000       0.91656500 </v>
  </varray>
 </structure>
 <calculation>
  <scstep>
   <time name="dav">    0.34    0.34</time>
   <time name="total">    1.15    1.15</time>
   <energy>
    <i name="alphaZ">      1.18323955 </i>
    <i name="ewald">    172.18683896 </i>
    <i name="hartreedc">   -393.99545989 </i>
    <i name="XCdc">     35.70888611 </i>
    <i name="pawpsdc">     78.78818903 </i>
    <i name="pawaedc">    -81.12517927 </i>
    <i name="eentropy">      0.00000000 </i>
    <i name="bandstr">    -93.73202182 </i>
    <i name="atom">    344.01377183 </i>
    <i name="e_fr_energy">     63.02826450 </i>
    <i name="e_wo_entrp">     63.02826450 </i>
    <i name="e_0_energy">     63.02826450 </i>
   </energy>
  </scstep>
  <scstep>
   <time name="dav">    0.55    0.55</time>
   <time name="total">    0.55    0.57</time>
   <energy>
    <i name="e_fr_energy">    -25.77777178 </i>
    <i name="e_wo_entrp">    -25.77777178 </i>
    <i name="e_0_energy">    -25.77777178 </i>
   </energy>
  </scstep>
  <scstep>
   <time name="dav">    0.57    0.57</time>
   <time name="total">    0.57    0.59</time>
   <energy>
    <i name="e_fr_energy">    -35.96283275 </i>
    <i name="e_wo_entrp">    -35.96283275 </i>
    <i name="e_0_energy">    -35.96283275 </i>
   </energy>
  </scstep>
  <scstep>
   <time name="dav">    0.36    0.36</time>
   <time name="total">    0.36    0.37</time>
   <energy>
    <i name="e_fr_energy">    -36.03136242 </i>
    <i name="e_wo_entrp">    -36.03136242 </i>
    <i name="e_0_energy">    -36.03136242 </i>
   </energy>
  </scstep>
  <scstep>
   <time name="dav">    0.48    0.48</time>
   <time name="total">    0.60    0.61</time>
   <energy>
    <i name="e_fr_energy">    -36.03222013 </i>
    <i name="e_wo_entrp">    -36.03222013 </i>
    <i name="e_0_energy">    -36.03222013 </i>
   </energy>
  </scstep>
  <scstep>
   <time name="dav">    0.36    0.36</time>
   <time name="total">    1.27    1.28</time>
   <energy>
    <i name="e_fr_energy">    -32.75994752 </i>
    <i name="e_wo_entrp">    -32.75994752 </i>
    <i name="e_0_energy">    -32.75994752 </i>
   </energy>
  </scstep>
  <scstep>
   <time name="dav">    0.45    0.45</time>
   <time name="total">    1.37    1.38</time>
   <energy>
    <i name="e_fr_energy">    -32.02507616 </i>
    <i name="e_wo_entrp">    -32.02507616 </i>
    <i name="e_0_energy">    -32.02507616 </i>
   </energy>
  </scstep>
  <scstep>
   <time name="dav">    0.38    0.38</time>
   <time name="total">    1.29    1.31</time>
   <energy>
    <i name="e_fr_energy">    -31.90910884 </i>
    <i name="e_wo_entrp">    -31.90910884 </i>
    <i name="e_0_energy">    -31.90910884 </i>
   </energy>
  </scstep>
  <scstep>
   <time name="dav">    0.45    0.45</time>
   <time name="total">    1.37    1.38</time>
   <energy>
    <i name="e_fr_energy">    -31.90272862 </i>
    <i name="e_wo_entrp">    -31.90272862 </i>
    <i name="e_0_energy">    -31.90272862 </i>
   </energy>
  </scstep>
  <scstep>
   <time name="dav">    0.38    0.38</time>
   <time name="total">    1.29    1.30</time>
   <energy>
    <i name="e_fr_energy">    -31.90388818 </i>
    <i name="e_wo_entrp">    -31.90388818 </i>
    <i name="e_0_energy">    -31.90388818 </i>
   </energy>
  </scstep>
  <scstep>
   <time name="dav">    0.34    0.34</time>
   <time name="total">    1.23    1.25</time>
   <energy>
    <i name="e_fr_energy">    -31.90461504 </i>
    <i name="e_wo_entrp">    -31.90461504 </i>
    <i name="e_0_energy">    -31.90461504 </i>
   </energy>
  </scstep>
  <scstep>
   <time name="dav">    0.34    0.34</time>
   <time name="total">    1.23    1.24</time>
   <energy>
    <i name="e_fr_energy">    -31.90866156 </i>
    <i name="e_wo_entrp">    -31.90866156 </i>
    <i name="e_0_energy">    -31.90866156 </i>
   </energy>
  </scstep>
  <scstep>
   <time name="dav">    0.34    0.34</time>
   <time name="total">    1.22    1.23</time>
   <energy>
    <i name="e_fr_energy">    -31.91160356 </i>
    <i name="e_wo_entrp">    -31.91160356 </i>
    <i name="e_0_energy">    -31.91160356 </i>
   </energy>
  </scstep>
  <scstep>
   <time name="dav">    0.36    0.36</time>
   <time name="total">    1.24    1.26</time>
   <energy>
    <i name="e_fr_energy">    -31.91256464 </i>
    <i name="e_wo_entrp">    -31.91256464 </i>
    <i name="e_0_energy">    -31.91256464 </i>
   </energy>
  </scstep>
  <scstep>
   <time name="dav">    0.38    0.38</time>
   <time name="total">    1.27    1.37</time>
   <energy>
    <i name="e_fr_energy">    -31.91276998 </i>
    <i name="e_wo_entrp">    -31.91276998 </i>
    <i name="e_0_energy">    -31.91276998 </i>
   </energy>
  </scstep>
  <scstep>
   <time name="dav">    0.34    0.34</time>
   <time name="total">    1.11    1.12</time>
   <energy>
    <i name="alphaZ">      1.18323955 </i>
    <i name="ewald">    172.18683896 </i>
    <i name="hartreedc">   -450.42832401 </i>
    <i name="XCdc">     39.16101893 </i>
    <i name="pawpsdc">    158.72014008 </i>
    <i name="pawaedc">   -161.36162146 </i>
    <i name="eentropy">      0.00000000 </i>
    <i name="bandstr">   -135.38793032 </i>
    <i name="atom">    344.01377183 </i>
    <i name="e_fr_energy">    -31.91286644 </i>
    <i name="e_wo_entrp">    -31.91286644 </i>
    <i name="e_0_energy">    -31.91286644 </i>
   </energy>
  </scstep>
  <parameters_embedded>
   <separator name="dft+d2" >
    <i type="logical" name="LVDW"> F  </i>
   </separator>
  </parameters_embedded>
  <structure>
   <crystal>
    <varray name="basis" >
     <v>       8.00000000       0.00000000       0.00000000 </v>
     <v>       0.00000000       8.00000000       0.00000000 </v>
     <v>       0.00000000       0.00000000       8.00000000 </v>
    </varray>
    <i name="volume">    512.00000000 </i>
    <varray name="rec_basis" >
     <v>       0.12500000       0.00000000       0.00000000 </v>
     <v>       0.00000000       0.12500000       0.00000000 </v>
     <v>       0.00000000       0.00000000       0.12500000 </v>
    </varray>
   </crystal>
   <varray name="positions" >
    <v>       0.00000000       0.11535400       0.15471187 </v>
    <v>       0.00000000       0.88464600       0.15471187 </v>
    <v>       0.00000000       0.11535400       0.84528813 </v>
    <v>       0.00000000       0.88464600       0.84528813 </v>
    <v>       0.00000000       0.00000000       0.08343500 </v>
    <v>       0.00000000       0.00000000       0.91656500 </v>
   </varray>
  </structure>
  <varray name="forces" >
   <v>       0.00000000       0.28484100       0.16305380 </v>
   <v>       0.00000000      -0.28484100       0.16305380 </v>
   <v>       0.00000000       0.28484100      -0.16305380 </v>
   <v>       0.00000000      -0.28484100      -0.16305380 </v>
   <v>       0.00000000       0.00000000      -0.34521116 </v>
   <v>       0.00000000       0.00000000       0.34521116 </v>
  </varray>
  <varray name="stress" >
   <v>      -4.35665639       0.00000000       0.00000000 </v>
   <v>       0.00000000      -1.62708842       0.00000000 </v>
   <v>       0.00000000       0.00000000      -3.38303266 </v>
  </varray>
  <energy>
   <i name="e_fr_energy">    -31.91286644 </i>
   <i name="e_wo_entrp">    -31.91286644 </i>
   <i name="e_0_energy">      0.00000000 </i>
  </energy>
  <time name="totalsc">   19.81   20.24</time>
 </calculation>
 <calculation>
  <scstep>
   <time name="dav">    0.34    0.34</time>
   <time name="total">    1.23    1.23</time>
   <energy>
    <i name="alphaZ">      1.18323955 </i>
    <i name="ewald">    171.57656331 </i>
    <i name="hartreedc">   -450.54126331 </i>
    <i name="XCdc">     39.10911840 </i>
    <i name="pawpsdc">    158.71955815 </i>
    <i name="pawaedc">   -161.36099944 </i>
    <i name="eentropy">      0.00000000 </i>
    <i name="bandstr">   -134.57636020 </i>
    <i name="atom">    344.01377183 </i>
    <i name="e_fr_energy">    -31.87637171 </i>
    <i name="e_wo_entrp">    -31.87637171 </i>
    <i name="e_0_energy">    -31.87637171 </i>
   </energy>
  </scstep>
  <scstep>
   <time name="dav">    0.36    0.36</time>
   <time name="total">    1.25    1.25</time>
   <energy>
    <i name="e_fr_energy">    -31.87588296 </i>
    <i name="e_wo_entrp">    -31.87588296 </i>
    <i name="e_0_energy">    -31.87588296 </i>
   </energy>
  </scstep>
  <scstep>
   <time name="dav">    0.33    0.34</time>
   <time name="total">    1.22    1.23</time>
   <energy>
    <i name="e_fr_energy">    -31.87396951 </i>
    <i name="e_wo_entrp">    -31.87396951 </i>
    <i name="e_0_energy">    -31.87396951 </i>
   </energy>
  </scstep>
  <scstep>
   <time name="dav">    0.38    0.38</time>
   <time name="total">    1.27    1.28</time>
   <energy>
    <i name="e_fr_energy">    -31.87393886 </i>
    <i name="e_wo_entrp">    -31.87393886 </i>
    <i name="e_0_energy">    -31.87393886 </i>
   </energy>
  </scstep>
  <scstep>
   <time name="dav">    0.38    0.38</time>
   <time name="total">    1.15    1.15</time>
   <energy>
    <i name="alphaZ">      1.18323955 </i>
    <i name="ewald">    171.57656331 </i>
    <i name="hartreedc">   -450.11912697 </i>
    <i name="XCdc">     39.06362690 </i>
    <i name="pawpsdc">    157.85890574 </i>
    <i name="pawaedc">   -160.49685128 </i>
    <i name="eentropy">      0.00000000 </i>
    <i name="bandstr">   -134.95407238 </i>
    <i name="atom">    344.01377183 </i>
    <i name="e_fr_energy">    -31.87394331 </i>
    <i name="e_wo_entrp">    -31.87394331 </i>
    <i name="e_0_energy">    -31.87394331 </i>
   </energy>
  </scstep>
  <structure>
   <crystal>
    <varray name="basis" >
     <v>       8.00000000       0.00000000       0.00000000 </v>
     <v>       0.00000000       8.00000000       0.00000000 </v>
     <v>       0.00000000       0.00000000       8.00000000 </v>
    </varray>
    <i name="volume">    512.00000000 </i>
    <varray name="rec_basis" >
     <v>       0.12500000       0.00000000       0.00000000 </v>
     <v>       0.00000000       0.12500000       0.00000000 </v>
     <v>       0.00000000       0.00000000       0.12500000 </v>
    </varray>
   </crystal>
   <varray name="positions" >
    <v>       0.00000000       0.11707169       0.15569514 </v>
    <v>       0.00000000       0.88292831       0.15569514 </v>
    <v>       0.00000000       0.11707169       0.84430486 </v>
    <v>       0.00000000       0.88292831       0.84430486 </v>
    <v>       0.00000000       0.00000000       0.08135326 </v>
    <v>       0.00000000       0.00000000       0.91864674 </v>
   </varray>
  </structure>
  <varray name="forces" >
   <v>       0.00000000      -0.34936791      -0.26418897 </v>
   <v>       0.00000000       0.34936791      -0.26418897 </v>
   <v>       0.00000000      -0.34936791       0.26418897 </v>
   <v>       0.00000000       0.34936791       0.26418897 </v>
   <v>       0.00000000       0.00000000       2.48669296 </v>
   <v>       0.00000000       0.00000000      -2.48669296 </v>
  </varray>
  <varray name="stress" >
   <v>      -4.29248929       0.00000000       0.00000000 </v>
   <v>       0.00000000      -8.69837644       0.00000000 </v>
   <v>       0.00000000       0.00000000       1.57082714 </v>
  </varray>
  <energy>
   <i name="e_fr_energy">    -31.87394331 </i>
   <i name="e_wo_entrp">    -31.87394331 </i>
   <i name="e_0_energy">      0.00000000 </i>
  </energy>
  <time name="totalsc">    7.84    7.91</time>
 </calculation>
 <calculation>
  <scstep>
   <time name="dav">    0.34    0.34</time>
   <time name="total">    1.22    1.23</time>
   <energy>
    <i name="alphaZ">      1.18323955 </i>
    <i name="ewald">    172.01270421 </i>
    <i name="hartreedc">   -450.01416236 </i>
    <i name="XCdc">     39.10204616 </i>
    <i name="pawpsdc">    157.87072191 </i>
    <i name="pawaedc">   -160.50885901 </i>
    <i name="eentropy">      0.00000000 </i>
    <i name="bandstr">   -135.57726196 </i>
    <i name="atom">    344.01377183 </i>
    <i name="e_fr_energy">    -31.91779965 </i>
    <i name="e_wo_entrp">    -31.91779965 </i>
    <i name="e_0_energy">    -31.91779965 </i>
   </energy>
  </scstep>
  <scstep>
   <time name="dav">    0.34    0.34</time>
   <time name="total">    1.24    1.24</time>
   <energy>
    <i name="e_fr_energy">    -31.91766290 </i>
    <i name="e_wo_entrp">    -31.91766290 </i>
    <i name="e_0_energy">    -31.91766290 </i>
   </energy>
  </scstep>
  <scstep>
   <time name="dav">    0.34    0.34</time>
   <time name="total">    1.25    1.28</time>
   <energy>
    <i name="e_fr_energy">    -31.91660772 </i>
    <i name="e_wo_entrp">    -31.91660772 </i>
    <i name="e_0_energy">    -31.91660772 </i>
   </energy>
  </scstep>
  <scstep>
   <time name="dav">    0.38    0.38</time>
   <time name="total">    1.18    1.19</time>
   <energy>
    <i name="alphaZ">      1.18323955 </i>
    <i name="ewald">    172.01270421 </i>
    <i name="hartreedc">   -450.33479256 </i>
    <i name="XCdc">     39.13792190 </i>
    <i name="pawpsdc">    158.44437291 </i>
    <i name="pawaedc">   -161.08485791 </i>
    <i name="eentropy">      0.00000000 </i>
    <i name="bandstr">   -135.28889594 </i>
    <i name="atom">    344.01377183 </i>
    <i name="e_fr_energy">    -31.91653600 </i>
    <i name="e_wo_entrp">    -31.91653600 </i>
    <i name="e_0_energy">    -31.91653600 </i>
   </energy>
  </scstep>
  <structure>
   <crystal>
    <varray name="basis" >
     <v>       8.00000000       0.00000000       0.00000000 </v>
     <v>       0.00000000       8.00000000       0.00000000 </v>
     <v>       0.00000000       0.00000000       8.00000000 </v>
    </varray>
    <i name="volume">    512.00000000 </i>
    <varray name="rec_basis" >
     <v>       0.12500000       0.00000000       0.00000000 </v>
     <v>       0.00000000       0.12500000       0.00000000 </v>
     <v>       0.00000000       0.00000000       0.12500000 </v>
    </varray>
   </crystal>
   <varray name="positions" >
    <v>       0.00000000       0.11574282       0.15493445 </v>
    <v>       0.00000000       0.88425718       0.15493445 </v>
    <v>       0.00000000       0.11574282       0.84506555 </v>
    <v>       0.00000000       0.88425718       0.84506555 </v>
    <v>       0.00000000       0.00000000       0.08296378 </v>
    <v>       0.00000000       0.00000000       0.91703622 </v>
   </varray>
  </structure>
  <varray name="forces" >
   <v>       0.00000000       0.13461218       0.06209967 </v>
   <v>       0.00000000      -0.13461218       0.06209967 </v>
   <v>       0.00000000       0.13461218      -0.06209967 </v>
   <v>       0.00000000      -0.13461218      -0.06209967 </v>
   <v>       0.00000000       0.00000000       0.26792471 </v>
   <v>       0.00000000       0.00000000      -0.26792471 </v>
  </varray>
  <varray name="stress" >
   <v>      -4.30933751       0.00000000       0.00000000 </v>
   <v>       0.00000000      -3.25696027       0.00000000 </v>
   <v>       0.00000000       0.00000000      -2.37859524 </v>
  </varray>
  <energy>
   <i name="e_fr_energy">    -31.91653600 </i>
   <i name="e_wo_entrp">    -31.91653600 </i>
   <i name="e_0_energy">      0.00000000 </i>
  </energy>
  <time name="totalsc">    6.65    6.73</time>
 </calculation>
 <calculation>
  <scstep>
   <time name="dav">    0.34    0.34</time>
   <time name="total">    1.25    1.26</time>
   <energy>
    <i name="alphaZ">      1.18323955 </i>
    <i name="ewald">    168.17902107 </i>
    <i name="hartreedc">   -447.82564046 </i>
    <i name="XCdc">     39.04500028 </i>
    <i name="pawpsdc">    158.45495182 </i>
    <i name="pawaedc">   -161.09542773 </i>
    <i name="eentropy">      0.00000000 </i>
    <i name="bandstr">   -133.87449764 </i>
    <i name="atom">    344.01377183 </i>
    <i name="e_fr_energy">    -31.91958127 </i>
    <i name="e_wo_entrp">    -31.91958127 </i>
    <i name="e_0_energy">    -31.91958127 </i>
   </energy>
  </scstep>
  <scstep>
   <time name="dav">    0.34    0.34</time>
   <time name="total">    1.23    1.23</time>
   <energy>
    <i name="e_fr_energy">    -31.91791123 </i>
    <i name="e_wo_entrp">    -31.91791123 </i>
    <i name="e_0_energy">    -31.91791123 </i>
   </energy>
  </scstep>
  <scstep>
   <time name="dav">    0.36    0.36</time>
   <time name="total">    1.23    1.24</time>
   <energy>
    <i name="e_fr_energy">    -31.91762088 </i>
    <i name="e_wo_entrp">    -31.91762088 </i>
    <i name="e_0_energy">    -31.91762088 </i>
   </energy>
  </scstep>
  <scstep>
   <time name="dav">    0.43    0.43</time>
   <time name="total">    1.35    1.44</time>
   <energy>
    <i name="alphaZ">      1.18323955 </i>
    <i name="ewald">    168.17902107 </i>
    <i name="hartreedc">   -446.85382178 </i>
    <i name="XCdc">     38.99458625 </i>
    <i name="pawpsdc">    155.58957114 </i>
    <i name="pawaedc">   -158.21562854 </i>
    <i name="eentropy">      0.00000000 </i>
    <i name="bandstr">   -134.80830040 </i>
    <i name="atom">    344.01377183 </i>
    <i name="e_fr_energy">    -31.91756086 </i>
    <i name="e_wo_entrp">    -31.91756086 </i>
    <i name="e_0_energy">    -31.91756086 </i>
   </energy>
  </scstep>
  <structure>
   <crystal>
    <varray name="basis" >
     <v>       8.00000000       0.00000000       0.00000000 </v>
     <v>       0.00000000       8.00000000       0.00000000 </v>
     <v>       0.00000000       0.00000000       8.00000000 </v>
    </varray>
    <i name="volume">    512.00000000 </i>
    <varray name="rec_basis" >
     <v>       0.12500000       0.00000000       0.00000000 </v>
     <v>       0.00000000       0.12500000       0.00000000 </v>
     <v>       0.00000000       0.00000000       0.12500000 </v>
    </varray>
   </crystal>
   <varray name="positions" >
    <v>       0.00000000       0.11691187       0.15552742 </v>
    <v>       0.00000000       0.88308813       0.15552742 </v>
    <v>       0.00000000       0.11691187       0.84447258 </v>
    <v>       0.00000000       0.88308813       0.84447258 </v>
    <v>       0.00000000       0.00000000       0.08374422 </v>
    <v>       0.00000000       0.00000000       0.91625578 </v>
   </varray>
  </structure>
  <varray name="forces" >
   <v>       0.00000000      -0.09768940      -0.04438755 </v>
   <v>       0.00000000       0.09768940      -0.04438755 </v>
   <v>       0.00000000      -0.09768940       0.04438755 </v>
   <v>       0.00000000       0.09768940       0.04438755 </v>
   <v>       0.00000000       0.00000000      -0.24461584 </v>
   <v>       0.00000000       0.00000000       0.24461584 </v>
  </varray>
  <varray name="stress" >
   <v>      -4.22840076       0.00000000       0.00000000 </v>
   <v>       0.00000000      -5.69156995       0.00000000 </v>
   <v>       0.00000000       0.00000000      -5.97676028 </v>
  </varray>
  <energy>
   <i name="e_fr_energy">    -31.91756086 </i>
   <i name="e_wo_entrp">    -31.91756086 </i>
   <i name="e_0_energy">      0.00000000 </i>
  </energy>
  <time name="totalsc">    7.08    7.24</time>
 </calculation>
 <calculation>
  <scstep>
   <time name="dav">    0.40    0.40</time>
   <time name="total">    1.49    1.49</time>
   <energy>
    <i name="alphaZ">      1.18323955 </i>
    <i name="ewald">    169.86398029 </i>
    <i name="hartreedc">   -447.96876736 </i>
    <i name="XCdc">     39.03460227 </i>
    <i name="pawpsdc">    155.32173437 </i>
    <i name="pawaedc">   -157.94822051 </i>
    <i name="eentropy">      0.00000000 </i>
    <i name="bandstr">   -135.41992879 </i>
    <i name="atom">    344.01377183 </i>
    <i name="e_fr_energy">    -31.91958835 </i>
    <i name="e_wo_entrp">    -31.91958835 </i>
    <i name="e_0_energy">    -31.91958835 </i>
   </energy>
  </scstep>
  <scstep>
   <time name="dav">    0.43    0.43</time>
   <time name="total">    1.52    1.52</time>
   <energy>
    <i name="e_fr_energy">    -31.91925034 </i>
    <i name="e_wo_entrp">    -31.91925034 </i>
    <i name="e_0_energy">    -31.91925034 </i>
   </energy>
  </scstep>
  <scstep>
   <time name="dav">    0.40    0.40</time>
   <time name="total">    1.35    1.36</time>
   <energy>
    <i name="alphaZ">      1.18323955 </i>
    <i name="ewald">    169.86398029 </i>
    <i name="hartreedc">   -448.46509938 </i>
    <i name="XCdc">     39.06006736 </i>
    <i name="pawpsdc">    156.69426226 </i>
    <i name="pawaedc">   -159.32792539 </i>
    <i name="eentropy">      0.00000000 </i>
    <i name="bandstr">   -134.94151134 </i>
    <i name="atom">    344.01377183 </i>
    <i name="e_fr_energy">    -31.91921482 </i>
    <i name="e_wo_entrp">    -31.91921482 </i>
    <i name="e_0_energy">    -31.91921482 </i>
   </energy>
  </scstep>
  <structure>
   <crystal>
    <varray name="basis" >
     <v>       8.00000000       0.00000000       0.00000000 </v>
     <v>       0.00000000       8.00000000       0.00000000 </v>
     <v>       0.00000000       0.00000000       8.00000000 </v>
    </varray>
    <i name="volume">    512.00000000 </i>
    <varray name="rec_basis" >
     <v>       0.12500000       0.00000000       0.00000000 </v>
     <v>       0.00000000       0.12500000       0.00000000 </v>
     <v>       0.00000000       0.00000000       0.12500000 </v>
    </varray>
   </crystal>
   <varray name="positions" >
    <v>       0.00000000       0.11639595       0.15526573 </v>
    <v>       0.00000000       0.88360405       0.15526573 </v>
    <v>       0.00000000       0.11639595       0.84473427 </v>
    <v>       0.00000000       0.88360405       0.84473427 </v>
    <v>       0.00000000       0.00000000       0.08339980 </v>
    <v>       0.00000000       0.00000000       0.91660020 </v>
   </varray>
  </structure>
  <varray name="forces" >
   <v>       0.00000000       0.01022151       0.00833436 </v>
   <v>       0.00000000      -0.01022151       0.00833436 </v>
   <v>       0.00000000       0.01022151      -0.00833436 </v>
   <v>       0.00000000      -0.01022151      -0.00833436 </v>
   <v>       0.00000000       0.00000000       0.00393029 </v>
   <v>       0.00000000       0.00000000      -0.00393029 </v>
  </varray>
  <varray name="stress" >
   <v>      -4.51990280       0.00000000       0.00000000 </v>
   <v>       0.00000000      -4.90836383       0.00000000 </v>
   <v>       0.00000000       0.00000000      -4.46493224 </v>
  </varray>
  <energy>
   <i name="e_fr_energy">    -31.91921482 </i>
   <i name="e_wo_entrp">    -31.91921482 </i>
   <i name="e_0_energy">      0.00000000 </i>
  </energy>
  <time name="totalsc">    6.21    6.27</time>
  <eigenvalues>
   <array>
    <dimension dim="1">band</dimension>
    <dimension dim="2">kpoint</dimension>
    <dimension dim="3">spin</dimension>
    <field>eigene</field>
    <field>occ</field>
    <set>
     <set comment="spin 1">
      <set comment="kpoint 1">
       <r>  -18.4030    1.0000 </r>
       <r>  -13.8151    1.0000 </r>
       <r>  -11.0283    1.0000 </r>
       <r>   -9.7734    1.0000 </r>
       <r>   -8.0847    1.0000 </r>
       <r>   -6.3663    1.0000 </r>
       <r>   -0.6626    0.0000 </r>
       <r>   -0.5133    0.0000 </r>
       <r>    1.2611    0.0000 </r>
       <r>    1.3237    0.0000 </r>
      </set>
     </set>
    </set>
   </array>
  </eigenvalues>
  <separator name="orbital magnetization" >
   <v name="MAGDIPOLOUT">      0.00000000      0.00000000      0.00000000</v>
  </separator>
  <dos>
   <i name="efermi">     -5.37591965 </i>
   <total>
    <array>
     <dimension dim="1">gridpoints</dimension>
     <dimension dim="2">spin</dimension>
     <field>energy</field>
     <field>total</field>
     <field>integrated</field>
     <set>
      <set comment="spin 1">
       <r>   -20.4030     0.0000     0.0000 </r>
       <r>   -20.3239     0.0000     0.0000 </r>
       <r>   -20.2448     0.0000     0.0000 </r>
       <r>   -20.1657     0.0000     0.0000 </r>
       <r>   -20.0866     0.0000     0.0000 </r>
       <r>   -20.0076     0.0000     0.0000 </r>
       <r>   -19.9285     0.0000     0.0000 </r>
       <r>   -19.8494     0.0000     0.0000 </r>
       <r>   -19.7703     0.0000     0.0000 </r>
       <r>   -19.6912     0.0000     0.0000 </r>
       <r>   -19.6121     0.0000     0.0000 </r>
       <r>   -19.5330     0.0000     0.0000 </r>
       <r>   -19.4539     0.0000     0.0000 </r>
       <r>   -19.3748     0.0000     0.0000 </r>
       <r>   -19.2957     0.0000     0.0000 </r>
       <r>   -19.2167     0.0000     0.0000 </r>
       <r>   -19.1376     0.0000     0.0000 </r>
       <r>   -19.0585     0.0000     0.0000 </r>
       <r>   -18.9794     0.0005     0.0000 </r>
       <r>   -18.9003     0.0049     0.0004 </r>
       <r>   -18.8212     0.0337     0.0031 </r>
       <r>   -18.7421     0.1692     0.0165 </r>
       <r>   -18.6630     0.6254     0.0659 </r>
       <r>   -18.5839     1.7040     0.2007 </r>
       <r>   -18.5049     3.4220     0.4714 </r>
       <r>   -18.4258     5.0666     0.8721 </r>
       <r>   -18.3467     5.5312     1.3095 </r>
       <r>   -18.2676     4.4524     1.6617 </r>
       <r>   -18.1885     2.6425     1.8707 </r>
       <r>   -18.1094     1.1562     1.9621 </r>
       <r>   -18.0303     0.3729     1.9916 </r>
       <r>   -17.9512     0.0886     1.9986 </r>
       <r>   -17.8721     0.0155     1.9998 </r>
       <r>   -17.7931     0.0020     2.0000 </r>
       <r>   -17.7140     0.0002     2.0000 </r>
       <r>   -17.6349     0.0000     2.0000 </r>
       <r>   -17.5558     0.0000     2.0000 </r>
       <r>   -17.4767     0.0000     2.0000 </r>
       <r>   -17.3976     0.0000     2.0000 </r>
       <r>   -17.3185     0.0000     2.0000 </r>
       <r>   -17.2394     0.0000     2.0000 </r>
       <r>   -17.1603     0.0000     2.0000 </r>
       <r>   -17.0813     0.0000     2.0000 </r>
       <r>   -17.0022     0.0000     2.0000 </r>
       <r>   -16.9231     0.0000     2.0000 </r>
       <r>   -16.8440     0.0000     2.0000 </r>
       <r>   -16.7649     0.0000     2.0000 </r>
       <r>   -16.6858     0.0000     2.0000 </r>
       <r>   -16.6067     0.0000     2.0000 </r>
       <r>   -16.5276     0.0000     2.0000 </r>
       <r>   -16.4485     0.0000     2.0000 </r>
       <r>   -16.3695     0.0000     2.0000 </r>
       <r>   -16.2904     0.0000     2.0000 </r>
       <r>   -16.2113     0.0000     2.0000 </r>
       <r>   -16.1322     0.0000     2.0000 </r>
       <r>   -16.0531     0.0000     2.0000 </r>
       <r>   -15.9740     0.0000     2.0000 </r>
       <r>   -15.8949     0.0000     2.0000 </r>
       <r>   -15.8158     0.0000     2.0000 </r>
       <r>   -15.7367     0.0000     2.0000 </r>
       <r>   -15.6577     0.0000     2.0000 </r>
       <r>   -15.5786     0.0000     2.0000 </r>
       <r>   -15.4995     0.0000     2.0000 </r>
       <r>   -15.4204     0.0000     2.0000 </r>
       <r>   -15.3413     0.0000     2.0000 </r>
       <r>   -15.2622     0.0000     2.0000 </r>
       <r>   -15.1831     0.0000     2.0000 </r>
       <r>   -15.1040     0.0000     2.0000 </r>
       <r>   -15.0249     0.0000     2.0000 </r>
       <r>   -14.9459     0.0000     2.0000 </r>
       <r>   -14.8668     0.0000     2.0000 </r>
       <r>   -14.7877     0.0000     2.0000 </r>
       <r>   -14.7086     0.0000     2.0000 </r>
       <r>   -14.6295     0.0000     2.0000 </r>
       <r>   -14.5504     0.0000     2.0000 </r>
       <r>   -14.4713     0.0000     2.0000 </r>
       <r>   -14.3922     0.0005     2.0000 </r>
       <r>   -14.3131     0.0049     2.0004 </r>
       <r>   -14.2340     0.0332     2.0031 </r>
       <r>   -14.1550     0.1669     2.0163 </r>
       <r>   -14.0759     0.6187     2.0652 </r>
       <r>   -13.9968     1.6904     2.1989 </r>
       <r>   -13.9177     3.4045     2.4681 </r>
       <r>   -13.8386     5.0552     2.8679 </r>
       <r>   -13.7595     5.5345     3.3057 </r>
       <r>   -13.6804     4.4678     3.6590 </r>
       <r>   -13.6013     2.6592     3.8693 </r>
       <r>   -13.5222     1.1668     3.9616 </r>
       <r>   -13.4432     0.3774     3.9915 </r>
       <r>   -13.3641     0.0899     3.9986 </r>
       <r>   -13.2850     0.0158     3.9998 </r>
       <r>   -13.2059     0.0020     4.0000 </r>
       <r>   -13.1268     0.0002     4.0000 </r>
       <r>   -13.0477     0.0000     4.0000 </r>
       <r>   -12.9686     0.0000     4.0000 </r>
       <r>   -12.8895     0.0000     4.0000 </r>
       <r>   -12.8104     0.0000     4.0000 </r>
       <r>   -12.7314     0.0000     4.0000 </r>
       <r>   -12.6523     0.0000     4.0000 </r>
       <r>   -12.5732     0.0000     4.0000 </r>
       <r>   -12.4941     0.0000     4.0000 </r>
       <r>   -12.4150     0.0000     4.0000 </r>
       <r>   -12.3359     0.0000     4.0000 </r>
       <r>   -12.2568     0.0000     4.0000 </r>
       <r>   -12.1777     0.0000     4.0000 </r>
       <r>   -12.0986     0.0000     4.0000 </r>
       <r>   -12.0196     0.0000     4.0000 </r>
       <r>   -11.9405     0.0000     4.0000 </r>
       <r>   -11.8614     0.0000     4.0000 </r>
       <r>   -11.7823     0.0000     4.0000 </r>
       <r>   -11.7032     0.0000     4.0000 </r>
       <r>   -11.6241     0.0003     4.0000 </r>
       <r>   -11.5450     0.0029     4.0003 </r>
       <r>   -11.4659     0.0216     4.0020 </r>
       <r>   -11.3868     0.1170     4.0112 </r>
       <r>   -11.3078     0.4664     4.0481 </r>
       <r>   -11.2287     1.3698     4.1564 </r>
       <r>   -11.1496     2.9652     4.3910 </r>
       <r>   -11.0705     4.7321     4.7652 </r>
       <r>   -10.9914     5.5682     5.2056 </r>
       <r>   -10.9123     4.8312     5.5877 </r>
       <r>   -10.8332     3.0906     5.8321 </r>
       <r>   -10.7541     1.4576     5.9474 </r>
       <r>   -10.6750     0.5067     5.9875 </r>
       <r>   -10.5960     0.1298     5.9978 </r>
       <r>   -10.5169     0.0245     5.9997 </r>
       <r>   -10.4378     0.0034     6.0000 </r>
       <r>   -10.3587     0.0008     6.0000 </r>
       <r>   -10.2796     0.0039     6.0003 </r>
       <r>   -10.2005     0.0276     6.0025 </r>
       <r>   -10.1214     0.1432     6.0138 </r>
       <r>   -10.0423     0.5479     6.0572 </r>
       <r>    -9.9632     1.5450     6.1794 </r>
       <r>    -9.8842     3.2114     6.4334 </r>
       <r>    -9.8051     4.9214     6.8226 </r>
       <r>    -9.7260     5.5609     7.2624 </r>
       <r>    -9.6469     4.6331     7.6288 </r>
       <r>    -9.5678     2.8461     7.8539 </r>
       <r>    -9.4887     1.2889     7.9559 </r>
       <r>    -9.4096     0.4303     7.9899 </r>
       <r>    -9.3305     0.1058     7.9983 </r>
       <r>    -9.2514     0.0192     7.9998 </r>
       <r>    -9.1723     0.0026     8.0000 </r>
       <r>    -9.0933     0.0003     8.0000 </r>
       <r>    -9.0142     0.0000     8.0000 </r>
       <r>    -8.9351     0.0000     8.0000 </r>
       <r>    -8.8560     0.0000     8.0000 </r>
       <r>    -8.7769     0.0000     8.0000 </r>
       <r>    -8.6978     0.0002     8.0000 </r>
       <r>    -8.6187     0.0018     8.0002 </r>
       <r>    -8.5396     0.0144     8.0013 </r>
       <r>    -8.4605     0.0832     8.0079 </r>
       <r>    -8.3815     0.3542     8.0359 </r>
       <r>    -8.3024     1.1118     8.1238 </r>
       <r>    -8.2233     2.5720     8.3272 </r>
       <r>    -8.1442     4.3864     8.6742 </r>
       <r>    -8.0651     5.5157     9.1104 </r>
       <r>    -7.9860     5.1140     9.5148 </r>
       <r>    -7.9069     3.4961     9.7913 </r>
       <r>    -7.8278     1.7621     9.9307 </r>
       <r>    -7.7487     0.6547     9.9825 </r>
       <r>    -7.6697     0.1793     9.9967 </r>
       <r>    -7.5906     0.0362     9.9995 </r>
       <r>    -7.5115     0.0054     9.9999 </r>
       <r>    -7.4324     0.0006    10.0000 </r>
       <r>    -7.3533     0.0000    10.0000 </r>
       <r>    -7.2742     0.0000    10.0000 </r>
       <r>    -7.1951     0.0000    10.0000 </r>
       <r>    -7.1160     0.0000    10.0000 </r>
       <r>    -7.0369     0.0000    10.0000 </r>
       <r>    -6.9579     0.0003    10.0000 </r>
       <r>    -6.8788     0.0033    10.0003 </r>
       <r>    -6.7997     0.0239    10.0022 </r>
       <r>    -6.7206     0.1273    10.0122 </r>
       <r>    -6.6415     0.4987    10.0517 </r>
       <r>    -6.5624     1.4404    10.1656 </r>
       <r>    -6.4833     3.0663    10.4081 </r>
       <r>    -6.4042     4.8124    10.7887 </r>
       <r>    -6.3251     5.5689    11.2292 </r>
       <r>    -6.2461     4.7516    11.6050 </r>
       <r>    -6.1670     2.9894    11.8414 </r>
       <r>    -6.0879     1.3865    11.9510 </r>
       <r>    -6.0088     0.4740    11.9885 </r>
       <r>    -5.9297     0.1194    11.9980 </r>
       <r>    -5.8506     0.0222    11.9997 </r>
       <r>    -5.7715     0.0030    12.0000 </r>
       <r>    -5.6924     0.0003    12.0000 </r>
       <r>    -5.6133     0.0000    12.0000 </r>
       <r>    -5.5343     0.0000    12.0000 </r>
       <r>    -5.4552     0.0000    12.0000 </r>
       <r>    -5.3761     0.0000    12.0000 </r>
       <r>    -5.2970     0.0000    12.0000 </r>
       <r>    -5.2179     0.0000    12.0000 </r>
       <r>    -5.1388     0.0000    12.0000 </r>
       <r>    -5.0597     0.0000    12.0000 </r>
       <r>    -4.9806     0.0000    12.0000 </r>
       <r>    -4.9015     0.0000    12.0000 </r>
       <r>    -4.8225     0.0000    12.0000 </r>
       <r>    -4.7434     0.0000    12.0000 </r>
       <r>    -4.6643     0.0000    12.0000 </r>
       <r>    -4.5852     0.0000    12.0000 </r>
       <r>    -4.5061     0.0000    12.0000 </r>
       <r>    -4.4270     0.0000    12.0000 </r>
       <r>    -4.3479     0.0000    12.0000 </r>
       <r>    -4.2688     0.0000    12.0000 </r>
       <r>    -4.1897     0.0000    12.0000 </r>
       <r>    -4.1106     0.0000    12.0000 </r>
       <r>    -4.0316     0.0000    12.0000 </r>
       <r>    -3.9525     0.0000    12.0000 </r>
       <r>    -3.8734     0.0000    12.0000 </r>
       <r>    -3.7943     0.0000    12.0000 </r>
       <r>    -3.7152     0.0000    12.0000 </r>
       <r>    -3.6361     0.0000    12.0000 </r>
       <r>    -3.5570     0.0000    12.0000 </r>
       <r>    -3.4779     0.0000    12.0000 </r>
       <r>    -3.3988     0.0000    12.0000 </r>
       <r>    -3.3198     0.0000    12.0000 </r>
       <r>    -3.2407     0.0000    12.0000 </r>
       <r>    -3.1616     0.0000    12.0000 </r>
       <r>    -3.0825     0.0000    12.0000 </r>
       <r>    -3.0034     0.0000    12.0000 </r>
       <r>    -2.9243     0.0000    12.0000 </r>
       <r>    -2.8452     0.0000    12.0000 </r>
       <r>    -2.7661     0.0000    12.0000 </r>
       <r>    -2.6870     0.0000    12.0000 </r>
       <r>    -2.6080     0.0000    12.0000 </r>
       <r>    -2.5289     0.0000    12.0000 </r>
       <r>    -2.4498     0.0000    12.0000 </r>
       <r>    -2.3707     0.0000    12.0000 </r>
       <r>    -2.2916     0.0000    12.0000 </r>
       <r>    -2.2125     0.0000    12.0000 </r>
       <r>    -2.1334     0.0000    12.0000 </r>
       <r>    -2.0543     0.0000    12.0000 </r>
       <r>    -1.9752     0.0000    12.0000 </r>
       <r>    -1.8962     0.0000    12.0000 </r>
       <r>    -1.8171     0.0000    12.0000 </r>
       <r>    -1.7380     0.0000    12.0000 </r>
       <r>    -1.6589     0.0000    12.0000 </r>
       <r>    -1.5798     0.0000    12.0000 </r>
       <r>    -1.5007     0.0000    12.0000 </r>
       <r>    -1.4216     0.0000    12.0000 </r>
       <r>    -1.3425     0.0000    12.0000 </r>
       <r>    -1.2634     0.0003    12.0000 </r>
       <r>    -1.1844     0.0026    12.0002 </r>
       <r>    -1.1053     0.0196    12.0018 </r>
       <r>    -1.0262     0.1094    12.0104 </r>
       <r>    -0.9471     0.4550    12.0464 </r>
       <r>    -0.8680     1.4175    12.1585 </r>
       <r>    -0.7889     3.3449    12.4231 </r>
       <r>    -0.7098     6.0686    12.9030 </r>
       <r>    -0.6307     8.6160    13.5845 </r>
       <r>    -0.5516     9.7220    14.3534 </r>
       <r>    -0.4726     8.7766    15.0475 </r>
       <r>    -0.3935     6.3030    15.5460 </r>
       <r>    -0.3144     3.5474    15.8266 </r>
       <r>    -0.2353     1.5372    15.9481 </r>
       <r>    -0.1562     0.5051    15.9881 </r>
       <r>    -0.0771     0.1245    15.9979 </r>
       <r>     0.0020     0.0228    15.9997 </r>
       <r>     0.0811     0.0031    16.0000 </r>
       <r>     0.1602     0.0003    16.0000 </r>
       <r>     0.2392     0.0000    16.0000 </r>
       <r>     0.3183     0.0000    16.0000 </r>
       <r>     0.3974     0.0000    16.0000 </r>
       <r>     0.4765     0.0000    16.0000 </r>
       <r>     0.5556     0.0000    16.0000 </r>
       <r>     0.6347     0.0001    16.0000 </r>
       <r>     0.7138     0.0014    16.0001 </r>
       <r>     0.7929     0.0124    16.0011 </r>
       <r>     0.8720     0.0788    16.0073 </r>
       <r>     0.9511     0.3722    16.0368 </r>
       <r>     1.0301     1.3099    16.1404 </r>
       <r>     1.1092     3.4380    16.4123 </r>
       <r>     1.1883     6.7387    16.9452 </r>
       <r>     1.2674     9.8740    17.7262 </r>
       <r>     1.3465    10.8222    18.5821 </r>
       <r>     1.4256     8.8739    19.2839 </r>
       <r>     1.5047     5.4419    19.7143 </r>
       <r>     1.5838     2.4939    19.9115 </r>
       <r>     1.6629     0.8531    19.9790 </r>
       <r>     1.7419     0.2175    19.9962 </r>
       <r>     1.8210     0.0413    19.9995 </r>
       <r>     1.9001     0.0058    19.9999 </r>
       <r>     1.9792     0.0006    20.0000 </r>
       <r>     2.0583     0.0000    20.0000 </r>
       <r>     2.1374     0.0000    20.0000 </r>
       <r>     2.2165     0.0000    20.0000 </r>
       <r>     2.2956     0.0000    20.0000 </r>
       <r>     2.3747     0.0000    20.0000 </r>
       <r>     2.4537     0.0000    20.0000 </r>
       <r>     2.5328     0.0000    20.0000 </r>
       <r>     2.6119     0.0000    20.0000 </r>
       <r>     2.6910     0.0000    20.0000 </r>
       <r>     2.7701     0.0000    20.0000 </r>
       <r>     2.8492     0.0000    20.0000 </r>
       <r>     2.9283     0.0000    20.0000 </r>
       <r>     3.0074     0.0000    20.0000 </r>
       <r>     3.0865     0.0000    20.0000 </r>
       <r>     3.1655     0.0000    20.0000 </r>
       <r>     3.2446     0.0000    20.0000 </r>
       <r>     3.3237     0.0000    20.0000 </r>
      </set>
     </set>
    </array>
   </total>
  </dos>
 </calculation>
 <structure name="finalpos" >
  <crystal>
   <varray name="basis" >
    <v>       8.00000000       0.00000000       0.00000000 </v>
    <v>       0.00000000       8.00000000       0.00000000 </v>
    <v>       0.00000000       0.00000000       8.00000000 </v>
   </varray>
   <i name="volume">    512.00000000 </i>
   <varray name="rec_basis" >
    <v>       0.12500000       0.00000000       0.00000000 </v>
    <v>       0.00000000       0.12500000       0.00000000 </v>
    <v>       0.00000000       0.00000000       0.12500000 </v>
   </varray>
  </crystal>
  <varray name="positions" >
   <v>       0.00000000       0.11639595       0.15526573 </v>
   <v>       0.00000000       0.88360405       0.15526573 </v>
   <v>       0.00000000       0.11639595       0.84473427 </v>
   <v>       0.00000000       0.88360405       0.84473427 </v>
   <v>       0.00000000       0.00000000       0.08339980 </v>
   <v>       0.00000000       0.00000000       0.91660020 </v>
  </varray>
 </structure>
</modeling>
