 running on    1 nodes
 distr:  one band on    1 nodes,    1 groups
 vasp.5.2.12 11Nov11 complex                                                    
  
 POSCAR found :  2 types and       5 ions
 LDA part: xc-table for Pade appr. of Perdew
 POSCAR, INCAR and KPOINTS ok, starting setup
 WARNING: small aliasing (wrap around) errors must be expected
 FFT: planning ...(           2 )
 WAVECAR not read
 entering main loop
       N       E                     dE             d eps       ncg     rms          rms(c)
DAV:   1     0.282338424670E+03    0.28234E+03   -0.10397E+04    56   0.834E+02
DAV:   2     0.212834149301E+02   -0.26106E+03   -0.25755E+03    72   0.225E+02
DAV:   3    -0.263557690113E+02   -0.47639E+02   -0.47541E+02    40   0.112E+02
DAV:   4    -0.272374073958E+02   -0.88164E+00   -0.88049E+00    48   0.169E+01
DAV:   5    -0.272624387288E+02   -0.25031E-01   -0.25024E-01    48   0.249E+00    0.823E+00
DAV:   6    -0.258332476912E+02    0.14292E+01   -0.60110E+00    48   0.168E+01    0.400E+00
DAV:   7    -0.258004184090E+02    0.32829E-01   -0.34787E-01    44   0.472E+00    0.213E+00
DAV:   8    -0.258246598081E+02   -0.24241E-01   -0.44500E-02    56   0.199E+00    0.254E-01
DAV:   9    -0.258260630889E+02   -0.14033E-02   -0.86752E-03    40   0.662E-01    0.109E-01
DAV:  10    -0.258262189116E+02   -0.15582E-03   -0.49623E-04    48   0.214E-01    0.371E-02
DAV:  11    -0.258263635549E+02   -0.14464E-03   -0.10844E-04    24   0.836E-02    0.744E-03
DAV:  12    -0.258264347142E+02   -0.71159E-04   -0.13723E-05    28   0.293E-02
   1 F= -.25826435E+02 E0= -.25826435E+02  d E =-.258264E+02
 curvature:   0.00 expect dE= 0.000E+00 dE for cont linesearch  0.000E+00
 trial: gam= 0.00000 g(F)=  0.230E+00 g(S)=  0.000E+00 ort = 0.000E+00 (trialstep = 0.100E+01)
 search vector abs. value=  0.230E+00
 bond charge predicted
       N       E                     dE             d eps       ncg     rms          rms(c)
DAV:   1    -0.256316677661E+02    0.19470E+00   -0.82999E+01    48   0.818E+01    0.238E+00
DAV:   2    -0.257554498145E+02   -0.12378E+00   -0.20494E+00    48   0.114E+01    0.105E+00
DAV:   3    -0.257486014476E+02    0.68484E-02   -0.25318E-02    40   0.152E+00    0.615E-01
DAV:   4    -0.257599822870E+02   -0.11381E-01   -0.31359E-02    48   0.136E+00    0.201E-01
DAV:   5    -0.257612562296E+02   -0.12739E-02   -0.22397E-02    48   0.103E+00    0.205E-01
DAV:   6    -0.257603337094E+02    0.92252E-03   -0.33898E-03    48   0.471E-01    0.560E-02
DAV:   7    -0.257604658443E+02   -0.13213E-03   -0.92712E-04    40   0.177E-01    0.208E-02
DAV:   8    -0.257605223483E+02   -0.56504E-04   -0.38538E-05    32   0.485E-02
   2 F= -.25760522E+02 E0= -.25760522E+02  d E =0.659124E-01
 trial-energy change:    0.065912  1 .order    0.053153   -0.230314    0.336621
 step:   0.3746(harm=  0.4062)  dis= 0.01140  next Energy=   -25.868903 (dE=-0.425E-01)
 bond charge predicted
       N       E                     dE             d eps       ncg     rms          rms(c)
DAV:   1    -0.258204814551E+02   -0.60016E-01   -0.31852E+01    40   0.522E+01    0.131E+00
DAV:   2    -0.258657560698E+02   -0.45275E-01   -0.67872E-01    48   0.636E+00    0.654E-01
DAV:   3    -0.258636581288E+02    0.20979E-02   -0.87632E-03    44   0.905E-01    0.360E-01
DAV:   4    -0.258685414657E+02   -0.48833E-02   -0.12520E-02    48   0.817E-01    0.966E-02
DAV:   5    -0.258686105813E+02   -0.69116E-04   -0.90843E-04    44   0.227E-01
   3 F= -.25868611E+02 E0= -.25868611E+02  d E =-.421759E-01
 curvature:  -0.20 expect dE=-0.332E-06 dE for cont linesearch -0.332E-06
 trial: gam=-0.00266 g(F)=  0.164E-05 g(S)=  0.000E+00 ort = 0.614E-03 (trialstep = 0.875E+00)
 search vector abs. value=  0.112E-09
 reached required accuracy - stopping structural energy minimisation
 writing wavefunctions
NPROCS =  1
