   5   5   0   0
  0.1024000E+03  0.8000000E-09  0.8000000E-09  0.8000000E-09  0.5000000E-15
  1.000000000000000E-004
  CAR 
 unknown system                          
      4.15251038    -35.99221727  301     -8.82552736      1.00000000
    -35.992  0.0000E+00  0.0000E+00
    -35.858  0.0000E+00  0.0000E+00
    -35.725  0.0000E+00  0.0000E+00
    -35.591  0.0000E+00  0.0000E+00
    -35.457  0.0000E+00  0.0000E+00
    -35.323  0.0000E+00  0.0000E+00
    -35.189  0.0000E+00  0.0000E+00
    -35.056  0.4140E-13  0.5540E-14
    -34.922  0.3696E-10  0.4952E-11
    -34.788  0.1373E-07  0.1843E-08
    -34.654  0.2131E-05  0.2870E-06
    -34.520  0.1389E-03  0.1887E-04
    -34.386  0.3828E-02  0.5312E-03
    -34.253  0.4504E-01  0.6558E-02
    -34.119  0.2281E+00  0.3708E-01
    -33.985  0.5007E+00  0.1041E+00
    -33.851  0.4787E+00  0.1681E+00
    -33.717  0.1993E+00  0.1948E+00
    -33.584  0.3594E-01  0.1996E+00
    -33.450  0.2787E-02  0.2000E+00
    -33.316  0.9214E-04  0.2000E+00
    -33.182  0.1288E-05  0.2000E+00
    -33.048  0.7554E-08  0.2000E+00
    -32.914  0.1849E-10  0.2000E+00
    -32.781  0.1892E-13  0.2000E+00
    -32.647  0.0000E+00  0.2000E+00
    -32.513  0.0000E+00  0.2000E+00
    -32.379  0.0000E+00  0.2000E+00
    -32.245  0.1324E-12  0.2000E+00
    -32.112  0.1173E-09  0.2000E+00
    -31.978  0.4325E-07  0.2000E+00
    -31.844  0.6658E-05  0.2000E+00
    -31.710  0.4306E-03  0.2001E+00
    -31.576  0.1178E-01  0.2016E+00
    -31.442  0.1376E+00  0.2200E+00
    -31.309  0.6915E+00  0.3126E+00
    -31.175  0.1507E+01  0.5142E+00
    -31.041  0.1430E+01  0.7056E+00
    -30.907  0.5909E+00  0.7847E+00
    -30.773  0.1058E+00  0.7989E+00
    -30.640  0.8143E-02  0.8000E+00
    -30.506  0.2672E-03  0.8000E+00
    -30.372  0.3705E-05  0.8000E+00
    -30.238  0.2157E-07  0.8000E+00
    -30.104  0.5240E-10  0.8000E+00
    -29.971  0.5277E-13  0.8000E+00
    -29.837  0.0000E+00  0.8000E+00
    -29.703  0.0000E+00  0.8000E+00
    -29.569  0.0000E+00  0.8000E+00
    -29.435  0.0000E+00  0.8000E+00
    -29.301  0.0000E+00  0.8000E+00
    -29.168  0.0000E+00  0.8000E+00
    -29.034  0.0000E+00  0.8000E+00
    -28.900  0.0000E+00  0.8000E+00
    -28.766  0.0000E+00  0.8000E+00
    -28.632  0.0000E+00  0.8000E+00
    -28.499  0.0000E+00  0.8000E+00
    -28.365  0.0000E+00  0.8000E+00
    -28.231  0.0000E+00  0.8000E+00
    -28.097  0.0000E+00  0.8000E+00
    -27.963  0.0000E+00  0.8000E+00
    -27.829  0.0000E+00  0.8000E+00
    -27.696  0.0000E+00  0.8000E+00
    -27.562  0.0000E+00  0.8000E+00
    -27.428  0.0000E+00  0.8000E+00
    -27.294  0.0000E+00  0.8000E+00
    -27.160  0.0000E+00  0.8000E+00
    -27.027  0.0000E+00  0.8000E+00
    -26.893  0.0000E+00  0.8000E+00
    -26.759  0.0000E+00  0.8000E+00
    -26.625  0.0000E+00  0.8000E+00
    -26.491  0.0000E+00  0.8000E+00
    -26.357  0.0000E+00  0.8000E+00
    -26.224  0.0000E+00  0.8000E+00
    -26.090  0.0000E+00  0.8000E+00
    -25.956  0.0000E+00  0.8000E+00
    -25.822  0.0000E+00  0.8000E+00
    -25.688  0.0000E+00  0.8000E+00
    -25.555  0.0000E+00  0.8000E+00
    -25.421  0.0000E+00  0.8000E+00
    -25.287  0.0000E+00  0.8000E+00
    -25.153  0.0000E+00  0.8000E+00
    -25.019  0.0000E+00  0.8000E+00
    -24.886  0.0000E+00  0.8000E+00
    -24.752  0.0000E+00  0.8000E+00
    -24.618  0.0000E+00  0.8000E+00
    -24.484  0.0000E+00  0.8000E+00
    -24.350  0.0000E+00  0.8000E+00
    -24.216  0.0000E+00  0.8000E+00
    -24.083  0.0000E+00  0.8000E+00
    -23.949  0.0000E+00  0.8000E+00
    -23.815  0.0000E+00  0.8000E+00
    -23.681  0.0000E+00  0.8000E+00
    -23.547  0.0000E+00  0.8000E+00
    -23.414  0.0000E+00  0.8000E+00
    -23.280  0.0000E+00  0.8000E+00
    -23.146  0.0000E+00  0.8000E+00
    -23.012  0.0000E+00  0.8000E+00
    -22.878  0.0000E+00  0.8000E+00
    -22.744  0.0000E+00  0.8000E+00
    -22.611  0.0000E+00  0.8000E+00
    -22.477  0.0000E+00  0.8000E+00
    -22.343  0.0000E+00  0.8000E+00
    -22.209  0.0000E+00  0.8000E+00
    -22.075  0.0000E+00  0.8000E+00
    -21.942  0.0000E+00  0.8000E+00
    -21.808  0.0000E+00  0.8000E+00
    -21.674  0.0000E+00  0.8000E+00
    -21.540  0.0000E+00  0.8000E+00
    -21.406  0.0000E+00  0.8000E+00
    -21.272  0.0000E+00  0.8000E+00
    -21.139  0.0000E+00  0.8000E+00
    -21.005  0.0000E+00  0.8000E+00
    -20.871  0.0000E+00  0.8000E+00
    -20.737  0.0000E+00  0.8000E+00
    -20.603  0.0000E+00  0.8000E+00
    -20.470  0.0000E+00  0.8000E+00
    -20.336  0.0000E+00  0.8000E+00
    -20.202  0.0000E+00  0.8000E+00
    -20.068  0.0000E+00  0.8000E+00
    -19.934  0.0000E+00  0.8000E+00
    -19.801  0.0000E+00  0.8000E+00
    -19.667  0.0000E+00  0.8000E+00
    -19.533  0.0000E+00  0.8000E+00
    -19.399  0.0000E+00  0.8000E+00
    -19.265  0.0000E+00  0.8000E+00
    -19.131  0.0000E+00  0.8000E+00
    -18.998  0.0000E+00  0.8000E+00
    -18.864  0.2489E-15  0.8000E+00
    -18.730  0.3739E-12  0.8000E+00
    -18.596  0.2545E-09  0.8000E+00
    -18.462  0.7207E-07  0.8000E+00
    -18.329  0.8538E-05  0.8000E+00
    -18.195  0.4257E-03  0.8001E+00
    -18.061  0.9005E-02  0.8013E+00
    -17.927  0.8149E-01  0.8122E+00
    -17.793  0.3182E+00  0.8547E+00
    -17.659  0.5397E+00  0.9270E+00
    -17.526  0.3988E+00  0.9803E+00
    -17.392  0.1281E+00  0.9975E+00
    -17.258  0.1780E-01  0.9999E+00
    -17.124  0.1061E-02  0.1000E+01
    -16.990  0.2688E-04  0.1000E+01
    -16.857  0.2871E-06  0.1000E+01
    -16.723  0.1285E-08  0.1000E+01
    -16.589  0.2397E-11  0.1000E+01
    -16.455  0.1825E-14  0.1000E+01
    -16.321  0.1469E-13  0.1000E+01
    -16.187  0.1681E-10  0.1000E+01
    -16.054  0.8059E-08  0.1000E+01
    -15.920  0.1611E-05  0.1000E+01
    -15.786  0.1351E-03  0.1000E+01
    -15.652  0.4779E-02  0.1001E+01
    -15.518  0.7197E-01  0.1010E+01
    -15.385  0.4653E+00  0.1073E+01
    -15.251  0.1302E+01  0.1247E+01
    -15.117  0.1585E+01  0.1459E+01
    -14.983  0.8407E+00  0.1571E+01
    -14.849  0.1935E+00  0.1597E+01
    -14.716  0.1920E-01  0.1600E+01
    -14.582  0.8144E-03  0.1600E+01
    -14.448  0.1463E-04  0.1600E+01
    -14.314  0.1106E-06  0.1600E+01
    -14.180  0.3493E-09  0.1600E+01
    -14.046  0.4590E-12  0.1600E+01
    -13.913  0.0000E+00  0.1600E+01
    -13.779  0.0000E+00  0.1600E+01
    -13.645  0.0000E+00  0.1600E+01
    -13.511  0.0000E+00  0.1600E+01
    -13.377  0.0000E+00  0.1600E+01
    -13.244  0.0000E+00  0.1600E+01
    -13.110  0.0000E+00  0.1600E+01
    -12.976  0.0000E+00  0.1600E+01
    -12.842  0.0000E+00  0.1600E+01
    -12.708  0.8297E-15  0.1600E+01
    -12.574  0.1367E-11  0.1600E+01
    -12.441  0.8614E-09  0.1600E+01
    -12.307  0.2261E-06  0.1600E+01
    -12.173  0.2483E-04  0.1600E+01
    -12.039  0.1149E-02  0.1600E+01
    -11.905  0.2256E-01  0.1603E+01
    -11.772  0.1897E+00  0.1629E+01
    -11.638  0.6889E+00  0.1721E+01
    -11.504  0.1093E+01  0.1867E+01
    -11.370  0.8323E+00  0.1978E+01
    -11.236  0.7416E+00  0.2078E+01
    -11.102  0.1390E+01  0.2264E+01
    -10.969  0.1557E+01  0.2472E+01
    -10.835  0.7740E+00  0.2575E+01
    -10.701  0.1671E+00  0.2598E+01
    -10.567  0.1555E-01  0.2600E+01
    -10.433  0.7998E-03  0.2600E+01
    -10.300  0.6055E-02  0.2601E+01
    -10.166  0.8536E-01  0.2612E+01
    -10.032  0.5179E+00  0.2682E+01
     -9.898  0.1361E+01  0.2864E+01
     -9.764  0.1556E+01  0.3072E+01
     -9.631  0.7746E+00  0.3175E+01
     -9.497  0.1674E+00  0.3198E+01
     -9.363  0.1558E-01  0.3200E+01
     -9.229  0.6193E-03  0.3200E+01
     -9.095  0.1042E-04  0.3200E+01
     -8.961  0.7376E-07  0.3200E+01
     -8.828  0.2181E-09  0.3200E+01
     -8.694  0.2683E-12  0.3200E+01
     -8.560  0.0000E+00  0.3200E+01
     -8.426  0.0000E+00  0.3200E+01
     -8.292  0.0000E+00  0.3200E+01
     -8.159  0.0000E+00  0.3200E+01
     -8.025  0.0000E+00  0.3200E+01
     -7.891  0.0000E+00  0.3200E+01
     -7.757  0.0000E+00  0.3200E+01
     -7.623  0.0000E+00  0.3200E+01
     -7.489  0.0000E+00  0.3200E+01
     -7.356  0.0000E+00  0.3200E+01
     -7.222  0.0000E+00  0.3200E+01
     -7.088  0.0000E+00  0.3200E+01
     -6.954  0.0000E+00  0.3200E+01
     -6.820  0.0000E+00  0.3200E+01
     -6.687  0.0000E+00  0.3200E+01
     -6.553  0.0000E+00  0.3200E+01
     -6.419  0.0000E+00  0.3200E+01
     -6.285  0.0000E+00  0.3200E+01
     -6.151  0.0000E+00  0.3200E+01
     -6.017  0.0000E+00  0.3200E+01
     -5.884  0.0000E+00  0.3200E+01
     -5.750  0.0000E+00  0.3200E+01
     -5.616  0.0000E+00  0.3200E+01
     -5.482  0.0000E+00  0.3200E+01
     -5.348  0.0000E+00  0.3200E+01
     -5.215  0.0000E+00  0.3200E+01
     -5.081  0.0000E+00  0.3200E+01
     -4.947  0.0000E+00  0.3200E+01
     -4.813  0.0000E+00  0.3200E+01
     -4.679  0.0000E+00  0.3200E+01
     -4.546  0.0000E+00  0.3200E+01
     -4.412  0.0000E+00  0.3200E+01
     -4.278  0.0000E+00  0.3200E+01
     -4.144  0.0000E+00  0.3200E+01
     -4.010  0.0000E+00  0.3200E+01
     -3.876  0.0000E+00  0.3200E+01
     -3.743  0.0000E+00  0.3200E+01
     -3.609  0.0000E+00  0.3200E+01
     -3.475  0.0000E+00  0.3200E+01
     -3.341  0.0000E+00  0.3200E+01
     -3.207  0.0000E+00  0.3200E+01
     -3.074  0.0000E+00  0.3200E+01
     -2.940  0.0000E+00  0.3200E+01
     -2.806  0.0000E+00  0.3200E+01
     -2.672  0.0000E+00  0.3200E+01
     -2.538  0.0000E+00  0.3200E+01
     -2.404  0.0000E+00  0.3200E+01
     -2.271  0.0000E+00  0.3200E+01
     -2.137  0.0000E+00  0.3200E+01
     -2.003  0.0000E+00  0.3200E+01
     -1.869  0.0000E+00  0.3200E+01
     -1.735  0.0000E+00  0.3200E+01
     -1.602  0.0000E+00  0.3200E+01
     -1.468  0.3360E-13  0.3200E+01
     -1.334  0.3079E-10  0.3200E+01
     -1.200  0.1173E-07  0.3200E+01
     -1.066  0.1866E-05  0.3200E+01
     -0.932  0.1247E-03  0.3200E+01
     -0.799  0.3523E-02  0.3200E+01
     -0.665  0.4246E-01  0.3206E+01
     -0.531  0.2202E+00  0.3236E+01
     -0.397  0.4953E+00  0.3302E+01
     -0.263  0.4849E+00  0.3367E+01
     -0.130  0.2067E+00  0.3394E+01
      0.004  0.3819E-01  0.3400E+01
      0.138  0.3035E-02  0.3400E+01
      0.272  0.1028E-03  0.3400E+01
      0.406  0.1473E-05  0.3400E+01
      0.539  0.8860E-08  0.3400E+01
      0.673  0.2224E-10  0.3400E+01
      0.807  0.3319E-13  0.3400E+01
      0.941  0.1139E-10  0.3400E+01
      1.075  0.5449E-08  0.3400E+01
      1.209  0.1087E-05  0.3400E+01
      1.342  0.9093E-04  0.3400E+01
      1.476  0.3212E-02  0.3400E+01
      1.610  0.4834E-01  0.3407E+01
      1.744  0.3141E+00  0.3449E+01
      1.878  0.9053E+00  0.3570E+01
      2.011  0.1256E+01  0.3738E+01
      2.145  0.1038E+01  0.3877E+01
      2.279  0.6292E+00  0.3961E+01
      2.413  0.2408E+00  0.3993E+01
      2.547  0.4558E-01  0.3999E+01
      2.681  0.3838E-02  0.4000E+01
      2.814  0.1389E-03  0.4000E+01
      2.948  0.2131E-05  0.4000E+01
      3.082  0.1373E-07  0.4000E+01
      3.216  0.3696E-10  0.4000E+01
      3.350  0.4148E-13  0.4000E+01
      3.483  0.0000E+00  0.4000E+01
      3.617  0.0000E+00  0.4000E+01
      3.751  0.0000E+00  0.4000E+01
      3.885  0.0000E+00  0.4000E+01
      4.019  0.0000E+00  0.4000E+01
      4.153  0.0000E+00  0.4000E+01
