    5    5   10    1
  0.1024000E+03  0.8000000E-09  0.8000000E-09  0.8000000E-09  0.5000000E-15
  1.000000000000000E-004
  CAR 
 unknown system                          
   32    1   20
 
  0.0000000E+00  0.0000000E+00  0.0000000E+00  0.1000000E+01
   1      -33.992217
   2      -31.183271
   3      -31.183271
   4      -31.183271
   5      -17.708200
   6      -15.219073
   7      -15.219073
   8      -15.219073
   9      -11.564324
  10      -11.564324
  11      -11.081013
  12      -11.081013
  13      -11.081013
  14       -9.876564
  15       -9.876564
  16       -9.876564
  17       -0.400623
  18        1.909018
  19        1.909018
  20        2.152510
