<?xml version="1.0" encoding="ISO-8859-1"?>
<modeling>
 <generator>
  <i name="program" type="string">vasp </i>
  <i name="version" type="string">5.2.12  </i>
  <i name="subversion" type="string">11Nov11 complex                                                      parallel </i>
  <i name="platform" type="string">LinuxIFC </i>
  <i name="date" type="string">2012 11 03 </i>
  <i name="time" type="string">02:53:42 </i>
 </generator>
 <incar>
  <i type="string" name="PREC">normal</i>
  <i type="int" name="IBRION">     2</i>
  <i type="int" name="NSW">    10</i>
  <i name="ENCUT">    350.00000000</i>
  <i type="int" name="ISMEAR">     0</i>
 </incar>
 <kpoints>
  <generation param="Monkhorst-Pack">
   <v type="int" name="divisions">       1        1        1 </v>
   <v name="usershift">      0.00000000       0.00000000       0.00000000 </v>
   <v name="genvec1">      1.00000000       0.00000000       0.00000000 </v>
   <v name="genvec2">      0.00000000       1.00000000       0.00000000 </v>
   <v name="genvec3">      0.00000000       0.00000000       1.00000000 </v>
   <v name="shift">      0.00000000       0.00000000       0.00000000 </v>
  </generation>
  <varray name="kpointlist" >
   <v>       0.00000000       0.00000000       0.00000000 </v>
  </varray>
  <varray name="weights" >
   <v>       1.00000000 </v>
  </varray>
 </kpoints>
 <parameters>
  <separator name="general" >
   <i type="string" name="SYSTEM">unknown system</i>
   <i type="logical" name="LCOMPAT"> F  </i>
  </separator>
  <separator name="electronic" >
   <i type="string" name="PREC">normal</i>
   <i name="ENMAX">    350.00000000</i>
   <i name="ENAUG">    644.87300000</i>
   <i name="EDIFF">      0.00010000</i>
   <i type="int" name="IALGO">    38</i>
   <i type="int" name="IWAVPR">    11</i>
   <i type="int" name="NBANDS">    20</i>
   <i name="NELECT">     32.00000000</i>
   <i type="int" name="TURBO">     0</i>
   <i type="int" name="IRESTART">     0</i>
   <i type="int" name="NREBOOT">     0</i>
   <i type="int" name="NMIN">     0</i>
   <i name="EREF">      0.00000000</i>
   <separator name="electronic smearing" >
    <i type="int" name="ISMEAR">     0</i>
    <i name="SIGMA">      0.20000000</i>
    <i name="KSPACING">      0.50000000</i>
    <i type="logical" name="KGAMMA"> T  </i>
   </separator>
   <separator name="electronic projectors" >
    <i type="logical" name="LREAL"> F  </i>
    <v name="ROPT">      0.00000000      0.00000000</v>
    <i type="int" name="LMAXPAW">  -100</i>
    <i type="int" name="LMAXMIX">     2</i>
    <i type="logical" name="NLSPLINE"> F  </i>
   </separator>
   <separator name="electronic startup" >
    <i type="int" name="ISTART">     0</i>
    <i type="int" name="ICHARG">     2</i>
    <i type="int" name="INIWAV">     1</i>
   </separator>
   <separator name="electronic spin" >
    <i type="int" name="ISPIN">     1</i>
    <i type="logical" name="LNONCOLLINEAR"> F  </i>
    <v name="MAGMOM">      1.00000000      1.00000000      1.00000000      1.00000000      1.00000000</v>
    <i name="NUPDOWN">     -1.00000000</i>
    <i type="logical" name="LSORBIT"> F  </i>
    <v name="SAXIS">      0.00000000      0.00000000      1.00000000</v>
    <i type="logical" name="LSPIRAL"> F  </i>
    <v name="QSPIRAL">      0.00000000      0.00000000      0.00000000</v>
    <i type="logical" name="LZEROZ"> F  </i>
   </separator>
   <separator name="electronic exchange-correlation" >
    <i type="logical" name="LASPH"> F  </i>
    <i type="logical" name="LMETAGGA"> F  </i>
   </separator>
   <separator name="electronic convergence" >
    <i type="int" name="NELM">    60</i>
    <i type="int" name="NELMDL">    -5</i>
    <i type="int" name="NELMIN">     2</i>
    <i name="ENINI">    350.00000000</i>
    <separator name="electronic convergence detail" >
     <i type="logical" name="LDIAG"> T  </i>
     <i type="logical" name="LSUBROT"> T  </i>
     <i name="WEIMIN">      0.00100000</i>
     <i name="EBREAK">      0.00000125</i>
     <i name="DEPER">      0.30000000</i>
     <i type="int" name="NRMM">     4</i>
     <i name="TIME">      0.40000000</i>
    </separator>
   </separator>
   <separator name="electronic mixer" >
    <i name="AMIX">      0.40000000</i>
    <i name="BMIX">      1.00000000</i>
    <i name="AMIN">      0.10000000</i>
    <i name="AMIX_MAG">      1.60000000</i>
    <i name="BMIX_MAG">      1.00000000</i>
    <separator name="electronic mixer details" >
     <i type="int" name="IMIX">     4</i>
     <i type="int" name="MAXMIX">   -45</i>
     <i name="WC">    100.00000000</i>
     <i type="int" name="INIMIX">     1</i>
     <i type="int" name="MIXPRE">     1</i>
     <i type="int" name="MREMOVE">     5</i>
    </separator>
   </separator>
   <separator name="electronic dipolcorrection" >
    <i type="logical" name="LDIPOL"> F  </i>
    <i type="logical" name="LMONO"> F  </i>
    <i type="int" name="IDIPOL">     0</i>
    <i name="EPSILON">      1.00000000</i>
    <v name="DIPOL">   -100.00000000   -100.00000000   -100.00000000</v>
    <i name="EFIELD">      0.00000000</i>
   </separator>
  </separator>
  <separator name="grids" >
   <i type="int" name="NGX">    40</i>
   <i type="int" name="NGY">    40</i>
   <i type="int" name="NGZ">    40</i>
   <i type="int" name="NGXF">    80</i>
   <i type="int" name="NGYF">    80</i>
   <i type="int" name="NGZF">    80</i>
   <i type="logical" name="ADDGRID"> F  </i>
  </separator>
  <separator name="ionic" >
   <i type="int" name="NSW">    10</i>
   <i type="int" name="IBRION">     2</i>
   <i type="int" name="ISIF">     2</i>
   <i name="PSTRESS">      0.00000000</i>
   <i name="EDIFFG">      0.00100000</i>
   <i type="int" name="NFREE">     1</i>
   <i name="POTIM">      0.50000000</i>
   <i name="SMASS">     -3.00000000</i>
   <i name="SCALEE">      1.00000000</i>
  </separator>
  <separator name="ionic md" >
   <i name="TEBEG">      0.00010000</i>
   <i name="TEEND">      0.00010000</i>
   <i type="int" name="NBLOCK">     1</i>
   <i type="int" name="KBLOCK">    10</i>
   <i type="int" name="NPACO">   256</i>
   <i name="APACO">     16.00000000</i>
  </separator>
  <separator name="symmetry" >
   <i type="int" name="ISYM">     2</i>
   <i name="SYMPREC">      0.00001000</i>
  </separator>
  <separator name="dos" >
   <i type="logical" name="LORBIT"> F  </i>
   <v name="RWIGS">     -1.00000000     -1.00000000</v>
   <i type="int" name="NEDOS">   301</i>
   <i name="EMIN">     10.00000000</i>
   <i name="EMAX">    -10.00000000</i>
   <i name="EFERMI">      0.00000000</i>
  </separator>
  <separator name="writing" >
   <i type="int" name="NWRITE">     2</i>
   <i type="logical" name="LWAVE"> T  </i>
   <i type="logical" name="LCHARG"> T  </i>
   <i type="logical" name="LPARD"> F  </i>
   <i type="logical" name="LVTOT"> F  </i>
   <i type="logical" name="LVHAR"> F  </i>
   <i type="logical" name="LELF"> F  </i>
   <i type="logical" name="LOPTICS"> F  </i>
   <v name="STM">      0.00000000      0.00000000      0.00000000      0.00000000      0.00000000      0.00000000      0.00000000</v>
  </separator>
  <separator name="performance" >
   <i type="int" name="NPAR">     1</i>
   <i type="int" name="NSIM">     4</i>
   <i type="int" name="NBLK">    -1</i>
   <i type="logical" name="LPLANE"> T  </i>
   <i type="logical" name="LSCALAPACK"> F  </i>
   <i type="logical" name="LSCAAWARE"> F  </i>
   <i type="logical" name="LSCALU"> F  </i>
   <i type="logical" name="LASYNC"> F  </i>
   <i type="logical" name="LORBITALREAL"> F  </i>
  </separator>
  <separator name="miscellaneous" >
   <i type="int" name="IDIOT">     3</i>
   <i type="logical" name="LMUSIC"> F  </i>
   <v name="POMASS">     12.01100000     18.99800000</v>
   <v name="DARWINR">      0.00000000      0.00000000</v>
   <v name="DARWINV">      1.00000000      1.00000000</v>
   <i type="logical" name="LCORR"> T  </i>
  </separator>
  <i type="logical" name="GGA_COMPAT"> T  </i>
  <i type="logical" name="LBERRY"> F  </i>
  <i type="int" name="ICORELEVEL">     0</i>
  <i type="logical" name="LDAU"> F  </i>
  <i type="int" name="I_CONSTRAINED_M">     0</i>
  <separator name="electronic exchange-correlation" >
   <i type="string" name="GGA">--</i>
   <i type="int" name="VOSKOWN">     0</i>
   <i type="logical" name="LHFCALC"> F  </i>
   <i type="string" name="PRECFOCK"></i>
   <i type="logical" name="LHFONE"> F  </i>
   <i type="logical" name="LRHFCALC"> F  </i>
   <i type="logical" name="LTHOMAS"> F  </i>
   <i type="logical" name="LMODELHF"> F  </i>
   <i name="ENCUT4O">     -1.00000000</i>
   <i type="int" name="EXXOEP">     0</i>
   <i type="int" name="FOURORBIT">     0</i>
   <i name="AEXX">      0.00000000</i>
   <i name="HFALPHA">      0.00000000</i>
   <i name="ALDAX">      1.00000000</i>
   <i name="AGGAX">      1.00000000</i>
   <i name="ALDAC">      1.00000000</i>
   <i name="AGGAC">      1.00000000</i>
   <i type="int" name="NKREDX">     1</i>
   <i type="int" name="NKREDY">     1</i>
   <i type="int" name="NKREDZ">     1</i>
   <i type="logical" name="SHIFTRED"> F  </i>
   <i type="logical" name="ODDONLY"> F  </i>
   <i type="logical" name="EVENONLY"> F  </i>
   <i type="int" name="LMAXFOCK">     0</i>
   <i type="int" name="NMAXFOCKAE">     0</i>
   <i type="logical" name="LFOCKAEDFT"> F  </i>
   <i name="HFSCREEN">      0.00000000</i>
   <i name="HFSCREENC">      0.00000000</i>
  </separator>
  <separator name="vdW DFT" >
   <i type="logical" name="LUSE_VDW"> F  </i>
   <i name="Zab_VDW">     -0.84910000</i>
   <i name="PARAM1">      0.12340000</i>
   <i name="PARAM2">      1.00000000</i>
   <i name="PARAM3">      0.00000000</i>
  </separator>
  <separator name="model GW" >
   <i type="int" name="MODEL_GW">     0</i>
   <i name="MODEL_EPS0">     61.44000000</i>
   <i name="MODEL_ALPHA">      1.00000000</i>
  </separator>
  <separator name="linear response parameters" >
   <i type="logical" name="LEPSILON"> F  </i>
   <i type="logical" name="LRPA"> F  </i>
   <i type="logical" name="LNABLA"> F  </i>
   <i type="logical" name="LVEL"> F  </i>
   <i type="int" name="KINTER">     0</i>
   <i name="CSHIFT">      0.10000000</i>
   <i name="OMEGAMAX">     -1.00000000</i>
  </separator>
  <separator name="orbital magnetization" >
   <i type="logical" name="NUCIND"> F  </i>
   <v name="MAGPOS">      0.00000000      0.00000000      0.00000000</v>
   <i type="logical" name="LNICSALL"> T  </i>
   <i type="logical" name="ORBITALMAG"> F  </i>
   <i type="logical" name="LMAGBLOCH"> F  </i>
   <i type="logical" name="LCHIMAG"> F  </i>
   <i type="logical" name="LGAUGE"> T  </i>
   <i type="int" name="MAGATOM">     0</i>
   <v name="MAGDIPOL">      0.00000000      0.00000000      0.00000000</v>
   <v name="AVECCONST">      0.00000000      0.00000000      0.00000000</v>
  </separator>
  <separator name="response functions" >
   <i type="logical" name="LADDER"> F  </i>
   <i type="logical" name="LHARTREE"> T  </i>
   <i type="int" name="IBSE">     0</i>
   <i type="logical" name="LTCTE"> F  </i>
   <i type="logical" name="LTETE"> F  </i>
   <i type="logical" name="LFXCEPS"> F  </i>
   <i type="logical" name="L2ORDER"> F  </i>
   <i type="logical" name="LUSEW"> F  </i>
   <i name="ENCUTGW">     -2.00000000</i>
   <i name="ENCUTGWSOFT">     -2.00000000</i>
   <i name="ENCUTLF">     -1.00000000</i>
   <i type="int" name="LMAXMP2">    -1</i>
   <i name="SCISSOR">      0.00000000</i>
   <i type="int" name="NOMEGA">     0</i>
   <i type="int" name="NOMEGAR">     0</i>
   <i type="int" name="NBANDSGW">    -1</i>
   <i type="int" name="NBANDSO">    -1</i>
   <i type="int" name="NBANDSV">    -1</i>
   <i name="OPTEMAX">      0.00000000</i>
   <i type="int" name="NELM">     1</i>
   <i type="int" name="DIM">     3</i>
   <i type="int" name="ANTIRES">     0</i>
   <i name="OMEGAMAX">    -30.00000000</i>
   <i name="OMEGATL">   -200.00000000</i>
   <i type="int" name="OMEGAGRID">     0</i>
   <i name="CSHIFT">     -0.10000000</i>
   <i type="logical" name="SELFENERGY"> F  </i>
   <i type="logical" name="LSPECTRAL"> F  </i>
   <i type="logical" name="ODDONLYGW"> F  </i>
   <i type="logical" name="EVENONLYGW"> F  </i>
   <i type="int" name="NKREDLFX">     1</i>
   <i type="int" name="NKREDLFY">     1</i>
   <i type="int" name="NKREDLFZ">     1</i>
   <i type="int" name="MAXMEM">  1800</i>
   <i type="int" name="TELESCOPE">     0</i>
  </separator>
 </parameters>
 <atominfo>
  <atoms>       5 </atoms>
  <types>       2 </types>
  <array name="atoms" >
   <dimension dim="1">ion</dimension>
   <field type="string">element</field>
   <field type="int">atomtype</field>
   <set>
    <rc><c>C </c><c>   1</c></rc>
    <rc><c>F </c><c>   2</c></rc>
    <rc><c>F </c><c>   2</c></rc>
    <rc><c>F </c><c>   2</c></rc>
    <rc><c>F </c><c>   2</c></rc>
   </set>
  </array>
  <array name="atomtypes" >
   <dimension dim="1">type</dimension>
   <field type="int">atomspertype</field>
   <field type="string">element</field>
   <field>mass</field>
   <field>valence</field>
   <field type="string">pseudopotential</field>
   <set>
    <rc><c>   1</c><c>C </c><c>     12.01100000</c><c>      4.00000000</c><c> PAW_PBE C 08Apr2002                    </c></rc>
    <rc><c>   4</c><c>F </c><c>     18.99800000</c><c>      7.00000000</c><c> PAW_PBE F 08Apr2002                    </c></rc>
   </set>
  </array>
 </atominfo>
 <structure name="initialpos" >
  <crystal>
   <varray name="basis" >
    <v>       8.00000000       0.00000000       0.00000000 </v>
    <v>       0.00000000       8.00000000       0.00000000 </v>
    <v>       0.00000000       0.00000000       8.00000000 </v>
   </varray>
   <i name="volume">    512.00000000 </i>
   <varray name="rec_basis" >
    <v>       0.12500000       0.00000000       0.00000000 </v>
    <v>       0.00000000       0.12500000       0.00000000 </v>
    <v>       0.00000000       0.00000000       0.12500000 </v>
   </varray>
  </crystal>
  <varray name="positions" >
   <v>       0.00000000       0.00000000       0.00000000 </v>
   <v>       0.09592950       0.09592950       0.09592950 </v>
   <v>       0.90407050       0.90407050       0.09592950 </v>
   <v>       0.90407050       0.09592950       0.90407050 </v>
   <v>       0.09592950       0.90407050       0.90407050 </v>
  </varray>
 </structure>
 <calculation>
  <scstep>
   <time name="dav">    0.96    0.96</time>
   <time name="total">    1.91    1.92</time>
   <energy>
    <i name="alphaZ">      7.54128431 </i>
    <i name="ewald">    639.40154998 </i>
    <i name="hartreedc">  -3017.86676478 </i>
    <i name="XCdc">    162.93152734 </i>
    <i name="pawpsdc">   1763.54531609 </i>
    <i name="pawaedc">  -1785.13761353 </i>
    <i name="eentropy">     -0.00701817 </i>
    <i name="bandstr">   -270.55626502 </i>
    <i name="atom">   2782.48640846 </i>
    <i name="e_fr_energy">    282.33842467 </i>
    <i name="e_wo_entrp">    282.34544284 </i>
    <i name="e_0_energy">    282.34193376 </i>
   </energy>
  </scstep>
  <scstep>
   <time name="dav">    1.16    1.16</time>
   <time name="total">    1.16    1.17</time>
   <energy>
    <i name="e_fr_energy">     21.28341493 </i>
    <i name="e_wo_entrp">     21.28341493 </i>
    <i name="e_0_energy">     21.28341493 </i>
   </energy>
  </scstep>
  <scstep>
   <time name="dav">    0.74    0.74</time>
   <time name="total">    0.74    0.76</time>
   <energy>
    <i name="e_fr_energy">    -26.35576901 </i>
    <i name="e_wo_entrp">    -26.35576901 </i>
    <i name="e_0_energy">    -26.35576901 </i>
   </energy>
  </scstep>
  <scstep>
   <time name="dav">    0.85    0.85</time>
   <time name="total">    0.85    0.86</time>
   <energy>
    <i name="e_fr_energy">    -27.23740740 </i>
    <i name="e_wo_entrp">    -27.23740740 </i>
    <i name="e_0_energy">    -27.23740740 </i>
   </energy>
  </scstep>
  <scstep>
   <time name="dav">    0.84    0.84</time>
   <time name="total">    1.04    1.07</time>
   <energy>
    <i name="e_fr_energy">    -27.26243873 </i>
    <i name="e_wo_entrp">    -27.26243873 </i>
    <i name="e_0_energy">    -27.26243873 </i>
   </energy>
  </scstep>
  <scstep>
   <time name="dav">    0.85    0.85</time>
   <time name="total">    1.95    2.36</time>
   <energy>
    <i name="e_fr_energy">    -25.83324769 </i>
    <i name="e_wo_entrp">    -25.83324769 </i>
    <i name="e_0_energy">    -25.83324769 </i>
   </energy>
  </scstep>
  <scstep>
   <time name="dav">    0.79    0.79</time>
   <time name="total">    1.89    2.19</time>
   <energy>
    <i name="e_fr_energy">    -25.80041841 </i>
    <i name="e_wo_entrp">    -25.80041841 </i>
    <i name="e_0_energy">    -25.80041841 </i>
   </energy>
  </scstep>
  <scstep>
   <time name="dav">    0.98    0.98</time>
   <time name="total">    2.01    3.43</time>
   <energy>
    <i name="e_fr_energy">    -25.82465981 </i>
    <i name="e_wo_entrp">    -25.82465981 </i>
    <i name="e_0_energy">    -25.82465981 </i>
   </energy>
  </scstep>
  <scstep>
   <time name="dav">    0.76    0.76</time>
   <time name="total">    1.79    1.80</time>
   <energy>
    <i name="e_fr_energy">    -25.82606309 </i>
    <i name="e_wo_entrp">    -25.82606309 </i>
    <i name="e_0_energy">    -25.82606309 </i>
   </energy>
  </scstep>
  <scstep>
   <time name="dav">    0.87    0.87</time>
   <time name="total">    1.90    1.93</time>
   <energy>
    <i name="e_fr_energy">    -25.82621891 </i>
    <i name="e_wo_entrp">    -25.82621891 </i>
    <i name="e_0_energy">    -25.82621891 </i>
   </energy>
  </scstep>
  <scstep>
   <time name="dav">    0.55    0.55</time>
   <time name="total">    1.58    1.60</time>
   <energy>
    <i name="e_fr_energy">    -25.82636355 </i>
    <i name="e_wo_entrp">    -25.82636355 </i>
    <i name="e_0_energy">    -25.82636355 </i>
   </energy>
  </scstep>
  <scstep>
   <time name="dav">    0.61    0.61</time>
   <time name="total">    1.45    1.47</time>
   <energy>
    <i name="alphaZ">      7.54128431 </i>
    <i name="ewald">    639.40154998 </i>
    <i name="hartreedc">  -3043.37714188 </i>
    <i name="XCdc">    165.19390627 </i>
    <i name="pawpsdc">   2047.90928365 </i>
    <i name="pawaedc">  -2068.58881581 </i>
    <i name="eentropy">      0.00000000 </i>
    <i name="bandstr">   -556.39290969 </i>
    <i name="atom">   2782.48640846 </i>
    <i name="e_fr_energy">    -25.82643471 </i>
    <i name="e_wo_entrp">    -25.82643471 </i>
    <i name="e_0_energy">    -25.82643471 </i>
   </energy>
  </scstep>
  <parameters_embedded>
   <separator name="dft+d2" >
    <i type="logical" name="LVDW"> F  </i>
   </separator>
  </parameters_embedded>
  <structure>
   <crystal>
    <varray name="basis" >
     <v>       8.00000000       0.00000000       0.00000000 </v>
     <v>       0.00000000       8.00000000       0.00000000 </v>
     <v>       0.00000000       0.00000000       8.00000000 </v>
    </varray>
    <i name="volume">    512.00000000 </i>
    <varray name="rec_basis" >
     <v>       0.12500000       0.00000000       0.00000000 </v>
     <v>       0.00000000       0.12500000       0.00000000 </v>
     <v>       0.00000000       0.00000000       0.12500000 </v>
    </varray>
   </crystal>
   <varray name="positions" >
    <v>       0.00000000       0.00000000       0.00000000 </v>
    <v>       0.09592950       0.09592950       0.09592950 </v>
    <v>       0.90407050       0.90407050       0.09592950 </v>
    <v>       0.90407050       0.09592950       0.90407050 </v>
    <v>       0.09592950       0.90407050       0.90407050 </v>
   </varray>
  </structure>
  <varray name="forces" >
   <v>       0.00000000       0.00000000       0.00000000 </v>
   <v>       0.63074583       0.63074583       0.63074583 </v>
   <v>      -0.63074583      -0.63074583       0.63074583 </v>
   <v>      -0.63074583       0.63074583      -0.63074583 </v>
   <v>       0.63074583      -0.63074583      -0.63074583 </v>
  </varray>
  <varray name="stress" >
   <v>     -40.52089874       0.00000000       0.00000000 </v>
   <v>       0.00000000     -40.52089874       0.00000000 </v>
   <v>       0.00000000       0.00000000     -40.52089874 </v>
  </varray>
  <energy>
   <i name="e_fr_energy">    -25.82643471 </i>
   <i name="e_wo_entrp">    -25.82643471 </i>
   <i name="e_0_energy">      0.00000000 </i>
  </energy>
  <time name="totalsc">   21.33   23.80</time>
 </calculation>
 <calculation>
  <scstep>
   <time name="dav">    0.90    0.90</time>
   <time name="total">    2.05    2.39</time>
   <energy>
    <i name="alphaZ">      7.54128431 </i>
    <i name="ewald">    525.81846097 </i>
    <i name="hartreedc">  -2945.35089069 </i>
    <i name="XCdc">    164.49352074 </i>
    <i name="pawpsdc">   2047.94537071 </i>
    <i name="pawaedc">  -2068.62460407 </i>
    <i name="eentropy">      0.00000000 </i>
    <i name="bandstr">   -539.94121819 </i>
    <i name="atom">   2782.48640846 </i>
    <i name="e_fr_energy">    -25.63166777 </i>
    <i name="e_wo_entrp">    -25.63166777 </i>
    <i name="e_0_energy">    -25.63166777 </i>
   </energy>
  </scstep>
  <scstep>
   <time name="dav">    0.92    0.92</time>
   <time name="total">    1.89    1.91</time>
   <energy>
    <i name="e_fr_energy">    -25.75544981 </i>
    <i name="e_wo_entrp">    -25.75544981 </i>
    <i name="e_0_energy">    -25.75544981 </i>
   </energy>
  </scstep>
  <scstep>
   <time name="dav">    0.81    0.81</time>
   <time name="total">    1.73    1.74</time>
   <energy>
    <i name="e_fr_energy">    -25.74860145 </i>
    <i name="e_wo_entrp">    -25.74860145 </i>
    <i name="e_0_energy">    -25.74860145 </i>
   </energy>
  </scstep>
  <scstep>
   <time name="dav">    0.92    0.92</time>
   <time name="total">    1.84    1.86</time>
   <energy>
    <i name="e_fr_energy">    -25.75998229 </i>
    <i name="e_wo_entrp">    -25.75998229 </i>
    <i name="e_0_energy">    -25.75998229 </i>
   </energy>
  </scstep>
  <scstep>
   <time name="dav">    0.90    0.90</time>
   <time name="total">    2.01    2.01</time>
   <energy>
    <i name="e_fr_energy">    -25.76125623 </i>
    <i name="e_wo_entrp">    -25.76125623 </i>
    <i name="e_0_energy">    -25.76125623 </i>
   </energy>
  </scstep>
  <scstep>
   <time name="dav">    0.90    0.90</time>
   <time name="total">    1.99    2.01</time>
   <energy>
    <i name="e_fr_energy">    -25.76033371 </i>
    <i name="e_wo_entrp">    -25.76033371 </i>
    <i name="e_0_energy">    -25.76033371 </i>
   </energy>
  </scstep>
  <scstep>
   <time name="dav">    0.79    0.79</time>
   <time name="total">    1.88    1.90</time>
   <energy>
    <i name="e_fr_energy">    -25.76046584 </i>
    <i name="e_wo_entrp">    -25.76046584 </i>
    <i name="e_0_energy">    -25.76046584 </i>
   </energy>
  </scstep>
  <scstep>
   <time name="dav">    0.68    0.68</time>
   <time name="total">    1.58    3.42</time>
   <energy>
    <i name="alphaZ">      7.54128431 </i>
    <i name="ewald">    525.81846097 </i>
    <i name="hartreedc">  -2935.85759841 </i>
    <i name="XCdc">    164.07126974 </i>
    <i name="pawpsdc">   2010.11435069 </i>
    <i name="pawaedc">  -2030.53799489 </i>
    <i name="eentropy">      0.00000000 </i>
    <i name="bandstr">   -549.39670322 </i>
    <i name="atom">   2782.48640846 </i>
    <i name="e_fr_energy">    -25.76052235 </i>
    <i name="e_wo_entrp">    -25.76052235 </i>
    <i name="e_0_energy">    -25.76052235 </i>
   </energy>
  </scstep>
  <structure>
   <crystal>
    <varray name="basis" >
     <v>       8.00000000       0.00000000       0.00000000 </v>
     <v>       0.00000000       8.00000000       0.00000000 </v>
     <v>       0.00000000       0.00000000       8.00000000 </v>
    </varray>
    <i name="volume">    512.00000000 </i>
    <varray name="rec_basis" >
     <v>       0.12500000       0.00000000       0.00000000 </v>
     <v>       0.00000000       0.12500000       0.00000000 </v>
     <v>       0.00000000       0.00000000       0.12500000 </v>
    </varray>
   </crystal>
   <varray name="positions" >
    <v>       0.00000000       0.00000000       0.00000000 </v>
    <v>       0.09973311       0.09973311       0.09973311 </v>
    <v>       0.90026689       0.90026689       0.09973311 </v>
    <v>       0.90026689       0.09973311       0.90026689 </v>
    <v>       0.09973311       0.90026689       0.90026689 </v>
   </varray>
  </structure>
  <varray name="forces" >
   <v>       0.00000000       0.00000000       0.00000000 </v>
   <v>      -0.92187899      -0.92187899      -0.92187899 </v>
   <v>       0.92187899       0.92187899      -0.92187899 </v>
   <v>       0.92187899      -0.92187899       0.92187899 </v>
   <v>      -0.92187899       0.92187899       0.92187899 </v>
  </varray>
  <varray name="stress" >
   <v>     -54.82689149       0.00000000       0.00000000 </v>
   <v>       0.00000000     -54.82689149       0.00000000 </v>
   <v>       0.00000000       0.00000000     -54.82689149 </v>
  </varray>
  <energy>
   <i name="e_fr_energy">    -25.76052235 </i>
   <i name="e_wo_entrp">    -25.76052235 </i>
   <i name="e_0_energy">      0.00000000 </i>
  </energy>
  <time name="totalsc">   17.07   19.77</time>
 </calculation>
 <calculation>
  <scstep>
   <time name="dav">    0.79    0.79</time>
   <time name="total">    1.91    1.91</time>
   <energy>
    <i name="alphaZ">      7.54128431 </i>
    <i name="ewald">    595.72018355 </i>
    <i name="hartreedc">  -2995.87237738 </i>
    <i name="XCdc">    164.48063801 </i>
    <i name="pawpsdc">   2010.01699265 </i>
    <i name="pawaedc">  -2030.44219201 </i>
    <i name="eentropy">      0.00000000 </i>
    <i name="bandstr">   -559.75141904 </i>
    <i name="atom">   2782.48640846 </i>
    <i name="e_fr_energy">    -25.82048146 </i>
    <i name="e_wo_entrp">    -25.82048146 </i>
    <i name="e_0_energy">    -25.82048146 </i>
   </energy>
  </scstep>
  <scstep>
   <time name="dav">    0.91    0.91</time>
   <time name="total">    2.05    2.09</time>
   <energy>
    <i name="e_fr_energy">    -25.86575607 </i>
    <i name="e_wo_entrp">    -25.86575607 </i>
    <i name="e_0_energy">    -25.86575607 </i>
   </energy>
  </scstep>
  <scstep>
   <time name="dav">    0.84    0.84</time>
   <time name="total">    2.00    2.06</time>
   <energy>
    <i name="e_fr_energy">    -25.86365813 </i>
    <i name="e_wo_entrp">    -25.86365813 </i>
    <i name="e_0_energy">    -25.86365813 </i>
   </energy>
  </scstep>
  <scstep>
   <time name="dav">    0.90    0.90</time>
   <time name="total">    2.07    2.10</time>
   <energy>
    <i name="e_fr_energy">    -25.86854147 </i>
    <i name="e_wo_entrp">    -25.86854147 </i>
    <i name="e_0_energy">    -25.86854147 </i>
   </energy>
  </scstep>
  <scstep>
   <time name="dav">    0.84    0.84</time>
   <time name="total">    1.82    1.87</time>
   <energy>
    <i name="alphaZ">      7.54128431 </i>
    <i name="ewald">    595.72018355 </i>
    <i name="hartreedc">  -3001.98034010 </i>
    <i name="XCdc">    164.75374331 </i>
    <i name="pawpsdc">   2031.94389594 </i>
    <i name="pawaedc">  -2052.51612909 </i>
    <i name="eentropy">      0.00000000 </i>
    <i name="bandstr">   -553.81765697 </i>
    <i name="atom">   2782.48640846 </i>
    <i name="e_fr_energy">    -25.86861058 </i>
    <i name="e_wo_entrp">    -25.86861058 </i>
    <i name="e_0_energy">    -25.86861058 </i>
   </energy>
  </scstep>
  <structure>
   <crystal>
    <varray name="basis" >
     <v>       8.00000000       0.00000000       0.00000000 </v>
     <v>       0.00000000       8.00000000       0.00000000 </v>
     <v>       0.00000000       0.00000000       8.00000000 </v>
    </varray>
    <i name="volume">    512.00000000 </i>
    <varray name="rec_basis" >
     <v>       0.12500000       0.00000000       0.00000000 </v>
     <v>       0.00000000       0.12500000       0.00000000 </v>
     <v>       0.00000000       0.00000000       0.12500000 </v>
    </varray>
   </crystal>
   <varray name="positions" >
    <v>       0.00000000       0.00000000       0.00000000 </v>
    <v>       0.09735437       0.09735437       0.09735437 </v>
    <v>       0.90264563       0.90264563       0.09735437 </v>
    <v>       0.90264563       0.09735437       0.90264563 </v>
    <v>       0.09735437       0.90264563       0.90264563 </v>
   </varray>
  </structure>
  <varray name="forces" >
   <v>       0.00000000       0.00000000       0.00000000 </v>
   <v>       0.00168277       0.00168277       0.00168277 </v>
   <v>      -0.00168277      -0.00168277       0.00168277 </v>
   <v>      -0.00168277       0.00168277      -0.00168277 </v>
   <v>       0.00168277      -0.00168277      -0.00168277 </v>
  </varray>
  <varray name="stress" >
   <v>     -45.86723666       0.00000000       0.00000000 </v>
   <v>       0.00000000     -45.86723666       0.00000000 </v>
   <v>       0.00000000       0.00000000     -45.86723666 </v>
  </varray>
  <energy>
   <i name="e_fr_energy">    -25.86861058 </i>
   <i name="e_wo_entrp">    -25.86861058 </i>
   <i name="e_0_energy">      0.00000000 </i>
  </energy>
  <time name="totalsc">   11.93   12.47</time>
  <eigenvalues>
   <array>
    <dimension dim="1">band</dimension>
    <dimension dim="2">kpoint</dimension>
    <dimension dim="3">spin</dimension>
    <field>eigene</field>
    <field>occ</field>
    <set>
     <set comment="spin 1">
      <set comment="kpoint 1">
       <r>  -33.9922    1.0000 </r>
       <r>  -31.1833    1.0000 </r>
       <r>  -31.1833    1.0000 </r>
       <r>  -31.1833    1.0000 </r>
       <r>  -17.7082    1.0000 </r>
       <r>  -15.2191    1.0000 </r>
       <r>  -15.2191    1.0000 </r>
       <r>  -15.2191    1.0000 </r>
       <r>  -11.5643    1.0000 </r>
       <r>  -11.5643    1.0000 </r>
       <r>  -11.0810    1.0000 </r>
       <r>  -11.0810    1.0000 </r>
       <r>  -11.0810    1.0000 </r>
       <r>   -9.8766    1.0000 </r>
       <r>   -9.8766    1.0000 </r>
       <r>   -9.8766    1.0000 </r>
       <r>   -0.4006    0.0000 </r>
       <r>    1.9090    0.0000 </r>
       <r>    1.9090    0.0000 </r>
       <r>    2.1525    0.0000 </r>
      </set>
     </set>
    </set>
   </array>
  </eigenvalues>
  <separator name="orbital magnetization" >
   <v name="MAGDIPOLOUT">      0.00000000      0.00000000      0.00000000</v>
  </separator>
  <dos>
   <i name="efermi">     -8.82552736 </i>
   <total>
    <array>
     <dimension dim="1">gridpoints</dimension>
     <dimension dim="2">spin</dimension>
     <field>energy</field>
     <field>total</field>
     <field>integrated</field>
     <set>
      <set comment="spin 1">
       <r>   -35.9922     0.0000     0.0000 </r>
       <r>   -35.8584     0.0000     0.0000 </r>
       <r>   -35.7246     0.0000     0.0000 </r>
       <r>   -35.5908     0.0000     0.0000 </r>
       <r>   -35.4570     0.0000     0.0000 </r>
       <r>   -35.3231     0.0000     0.0000 </r>
       <r>   -35.1893     0.0000     0.0000 </r>
       <r>   -35.0555     0.0000     0.0000 </r>
       <r>   -34.9217     0.0000     0.0000 </r>
       <r>   -34.7879     0.0000     0.0000 </r>
       <r>   -34.6541     0.0000     0.0000 </r>
       <r>   -34.5202     0.0014     0.0002 </r>
       <r>   -34.3864     0.0383     0.0053 </r>
       <r>   -34.2526     0.4504     0.0656 </r>
       <r>   -34.1188     2.2806     0.3708 </r>
       <r>   -33.9850     5.0073     1.0408 </r>
       <r>   -33.8512     4.7873     1.6814 </r>
       <r>   -33.7173     1.9925     1.9481 </r>
       <r>   -33.5835     0.3594     1.9961 </r>
       <r>   -33.4497     0.0279     1.9999 </r>
       <r>   -33.3159     0.0009     2.0000 </r>
       <r>   -33.1821     0.0000     2.0000 </r>
       <r>   -33.0483     0.0000     2.0000 </r>
       <r>   -32.9145     0.0000     2.0000 </r>
       <r>   -32.7806     0.0000     2.0000 </r>
       <r>   -32.6468     0.0000     2.0000 </r>
       <r>   -32.5130     0.0000     2.0000 </r>
       <r>   -32.3792     0.0000     2.0000 </r>
       <r>   -32.2454     0.0000     2.0000 </r>
       <r>   -32.1116     0.0000     2.0000 </r>
       <r>   -31.9777     0.0000     2.0000 </r>
       <r>   -31.8439     0.0001     2.0000 </r>
       <r>   -31.7101     0.0043     2.0006 </r>
       <r>   -31.5763     0.1178     2.0164 </r>
       <r>   -31.4425     1.3758     2.2005 </r>
       <r>   -31.3087     6.9148     3.1258 </r>
       <r>   -31.1748    15.0706     5.1424 </r>
       <r>   -31.0410    14.3030     7.0564 </r>
       <r>   -30.9072     5.9094     7.8472 </r>
       <r>   -30.7734     1.0579     7.9887 </r>
       <r>   -30.6396     0.0814     7.9996 </r>
       <r>   -30.5058     0.0027     8.0000 </r>
       <r>   -30.3720     0.0000     8.0000 </r>
       <r>   -30.2381     0.0000     8.0000 </r>
       <r>   -30.1043     0.0000     8.0000 </r>
       <r>   -29.9705     0.0000     8.0000 </r>
       <r>   -29.8367     0.0000     8.0000 </r>
       <r>   -29.7029     0.0000     8.0000 </r>
       <r>   -29.5691     0.0000     8.0000 </r>
       <r>   -29.4352     0.0000     8.0000 </r>
       <r>   -29.3014     0.0000     8.0000 </r>
       <r>   -29.1676     0.0000     8.0000 </r>
       <r>   -29.0338     0.0000     8.0000 </r>
       <r>   -28.9000     0.0000     8.0000 </r>
       <r>   -28.7662     0.0000     8.0000 </r>
       <r>   -28.6324     0.0000     8.0000 </r>
       <r>   -28.4985     0.0000     8.0000 </r>
       <r>   -28.3647     0.0000     8.0000 </r>
       <r>   -28.2309     0.0000     8.0000 </r>
       <r>   -28.0971     0.0000     8.0000 </r>
       <r>   -27.9633     0.0000     8.0000 </r>
       <r>   -27.8295     0.0000     8.0000 </r>
       <r>   -27.6956     0.0000     8.0000 </r>
       <r>   -27.5618     0.0000     8.0000 </r>
       <r>   -27.4280     0.0000     8.0000 </r>
       <r>   -27.2942     0.0000     8.0000 </r>
       <r>   -27.1604     0.0000     8.0000 </r>
       <r>   -27.0266     0.0000     8.0000 </r>
       <r>   -26.8927     0.0000     8.0000 </r>
       <r>   -26.7589     0.0000     8.0000 </r>
       <r>   -26.6251     0.0000     8.0000 </r>
       <r>   -26.4913     0.0000     8.0000 </r>
       <r>   -26.3575     0.0000     8.0000 </r>
       <r>   -26.2237     0.0000     8.0000 </r>
       <r>   -26.0899     0.0000     8.0000 </r>
       <r>   -25.9560     0.0000     8.0000 </r>
       <r>   -25.8222     0.0000     8.0000 </r>
       <r>   -25.6884     0.0000     8.0000 </r>
       <r>   -25.5546     0.0000     8.0000 </r>
       <r>   -25.4208     0.0000     8.0000 </r>
       <r>   -25.2870     0.0000     8.0000 </r>
       <r>   -25.1531     0.0000     8.0000 </r>
       <r>   -25.0193     0.0000     8.0000 </r>
       <r>   -24.8855     0.0000     8.0000 </r>
       <r>   -24.7517     0.0000     8.0000 </r>
       <r>   -24.6179     0.0000     8.0000 </r>
       <r>   -24.4841     0.0000     8.0000 </r>
       <r>   -24.3502     0.0000     8.0000 </r>
       <r>   -24.2164     0.0000     8.0000 </r>
       <r>   -24.0826     0.0000     8.0000 </r>
       <r>   -23.9488     0.0000     8.0000 </r>
       <r>   -23.8150     0.0000     8.0000 </r>
       <r>   -23.6812     0.0000     8.0000 </r>
       <r>   -23.5474     0.0000     8.0000 </r>
       <r>   -23.4135     0.0000     8.0000 </r>
       <r>   -23.2797     0.0000     8.0000 </r>
       <r>   -23.1459     0.0000     8.0000 </r>
       <r>   -23.0121     0.0000     8.0000 </r>
       <r>   -22.8783     0.0000     8.0000 </r>
       <r>   -22.7445     0.0000     8.0000 </r>
       <r>   -22.6106     0.0000     8.0000 </r>
       <r>   -22.4768     0.0000     8.0000 </r>
       <r>   -22.3430     0.0000     8.0000 </r>
       <r>   -22.2092     0.0000     8.0000 </r>
       <r>   -22.0754     0.0000     8.0000 </r>
       <r>   -21.9416     0.0000     8.0000 </r>
       <r>   -21.8077     0.0000     8.0000 </r>
       <r>   -21.6739     0.0000     8.0000 </r>
       <r>   -21.5401     0.0000     8.0000 </r>
       <r>   -21.4063     0.0000     8.0000 </r>
       <r>   -21.2725     0.0000     8.0000 </r>
       <r>   -21.1387     0.0000     8.0000 </r>
       <r>   -21.0049     0.0000     8.0000 </r>
       <r>   -20.8710     0.0000     8.0000 </r>
       <r>   -20.7372     0.0000     8.0000 </r>
       <r>   -20.6034     0.0000     8.0000 </r>
       <r>   -20.4696     0.0000     8.0000 </r>
       <r>   -20.3358     0.0000     8.0000 </r>
       <r>   -20.2020     0.0000     8.0000 </r>
       <r>   -20.0681     0.0000     8.0000 </r>
       <r>   -19.9343     0.0000     8.0000 </r>
       <r>   -19.8005     0.0000     8.0000 </r>
       <r>   -19.6667     0.0000     8.0000 </r>
       <r>   -19.5329     0.0000     8.0000 </r>
       <r>   -19.3991     0.0000     8.0000 </r>
       <r>   -19.2652     0.0000     8.0000 </r>
       <r>   -19.1314     0.0000     8.0000 </r>
       <r>   -18.9976     0.0000     8.0000 </r>
       <r>   -18.8638     0.0000     8.0000 </r>
       <r>   -18.7300     0.0000     8.0000 </r>
       <r>   -18.5962     0.0000     8.0000 </r>
       <r>   -18.4624     0.0000     8.0000 </r>
       <r>   -18.3285     0.0001     8.0000 </r>
       <r>   -18.1947     0.0043     8.0006 </r>
       <r>   -18.0609     0.0900     8.0126 </r>
       <r>   -17.9271     0.8149     8.1217 </r>
       <r>   -17.7933     3.1819     8.5475 </r>
       <r>   -17.6595     5.3968     9.2696 </r>
       <r>   -17.5256     3.9876     9.8033 </r>
       <r>   -17.3918     1.2814     9.9747 </r>
       <r>   -17.2580     0.1780     9.9985 </r>
       <r>   -17.1242     0.0106    10.0000 </r>
       <r>   -16.9904     0.0003    10.0000 </r>
       <r>   -16.8566     0.0000    10.0000 </r>
       <r>   -16.7227     0.0000    10.0000 </r>
       <r>   -16.5889     0.0000    10.0000 </r>
       <r>   -16.4551     0.0000    10.0000 </r>
       <r>   -16.3213     0.0000    10.0000 </r>
       <r>   -16.1875     0.0000    10.0000 </r>
       <r>   -16.0537     0.0000    10.0000 </r>
       <r>   -15.9199     0.0000    10.0000 </r>
       <r>   -15.7860     0.0014    10.0002 </r>
       <r>   -15.6522     0.0478    10.0066 </r>
       <r>   -15.5184     0.7197    10.1029 </r>
       <r>   -15.3846     4.6531    10.7255 </r>
       <r>   -15.2508    13.0205    12.4679 </r>
       <r>   -15.1170    15.8526    14.5892 </r>
       <r>   -14.9831     8.4070    15.7142 </r>
       <r>   -14.8493     1.9353    15.9732 </r>
       <r>   -14.7155     0.1920    15.9989 </r>
       <r>   -14.5817     0.0081    16.0000 </r>
       <r>   -14.4479     0.0001    16.0000 </r>
       <r>   -14.3141     0.0000    16.0000 </r>
       <r>   -14.1802     0.0000    16.0000 </r>
       <r>   -14.0464     0.0000    16.0000 </r>
       <r>   -13.9126     0.0000    16.0000 </r>
       <r>   -13.7788     0.0000    16.0000 </r>
       <r>   -13.6450     0.0000    16.0000 </r>
       <r>   -13.5112     0.0000    16.0000 </r>
       <r>   -13.3774     0.0000    16.0000 </r>
       <r>   -13.2435     0.0000    16.0000 </r>
       <r>   -13.1097     0.0000    16.0000 </r>
       <r>   -12.9759     0.0000    16.0000 </r>
       <r>   -12.8421     0.0000    16.0000 </r>
       <r>   -12.7083     0.0000    16.0000 </r>
       <r>   -12.5745     0.0000    16.0000 </r>
       <r>   -12.4406     0.0000    16.0000 </r>
       <r>   -12.3068     0.0000    16.0000 </r>
       <r>   -12.1730     0.0002    16.0000 </r>
       <r>   -12.0392     0.0115    16.0016 </r>
       <r>   -11.9054     0.2256    16.0318 </r>
       <r>   -11.7716     1.8971    16.2856 </r>
       <r>   -11.6377     6.8892    17.2075 </r>
       <r>   -11.5039    10.9265    18.6696 </r>
       <r>   -11.3701     8.3233    19.7834 </r>
       <r>   -11.2363     7.4159    20.7758 </r>
       <r>   -11.1025    13.8994    22.6358 </r>
       <r>   -10.9687    15.5682    24.7190 </r>
       <r>   -10.8349     7.7398    25.7547 </r>
       <r>   -10.7010     1.6711    25.9784 </r>
       <r>   -10.5672     0.1555    25.9992 </r>
       <r>   -10.4334     0.0080    26.0002 </r>
       <r>   -10.2996     0.0605    26.0083 </r>
       <r>   -10.1658     0.8536    26.1226 </r>
       <r>   -10.0320     5.1787    26.8155 </r>
       <r>    -9.8981    13.6053    28.6362 </r>
       <r>    -9.7643    15.5558    30.7178 </r>
       <r>    -9.6305     7.7463    31.7543 </r>
       <r>    -9.4967     1.6737    31.9783 </r>
       <r>    -9.3629     0.1558    31.9992 </r>
       <r>    -9.2291     0.0062    32.0000 </r>
       <r>    -9.0952     0.0001    32.0000 </r>
       <r>    -8.9614     0.0000    32.0000 </r>
       <r>    -8.8276     0.0000    32.0000 </r>
       <r>    -8.6938     0.0000    32.0000 </r>
       <r>    -8.5600     0.0000    32.0000 </r>
       <r>    -8.4262     0.0000    32.0000 </r>
       <r>    -8.2924     0.0000    32.0000 </r>
       <r>    -8.1585     0.0000    32.0000 </r>
       <r>    -8.0247     0.0000    32.0000 </r>
       <r>    -7.8909     0.0000    32.0000 </r>
       <r>    -7.7571     0.0000    32.0000 </r>
       <r>    -7.6233     0.0000    32.0000 </r>
       <r>    -7.4895     0.0000    32.0000 </r>
       <r>    -7.3556     0.0000    32.0000 </r>
       <r>    -7.2218     0.0000    32.0000 </r>
       <r>    -7.0880     0.0000    32.0000 </r>
       <r>    -6.9542     0.0000    32.0000 </r>
       <r>    -6.8204     0.0000    32.0000 </r>
       <r>    -6.6866     0.0000    32.0000 </r>
       <r>    -6.5528     0.0000    32.0000 </r>
       <r>    -6.4189     0.0000    32.0000 </r>
       <r>    -6.2851     0.0000    32.0000 </r>
       <r>    -6.1513     0.0000    32.0000 </r>
       <r>    -6.0175     0.0000    32.0000 </r>
       <r>    -5.8837     0.0000    32.0000 </r>
       <r>    -5.7499     0.0000    32.0000 </r>
       <r>    -5.6160     0.0000    32.0000 </r>
       <r>    -5.4822     0.0000    32.0000 </r>
       <r>    -5.3484     0.0000    32.0000 </r>
       <r>    -5.2146     0.0000    32.0000 </r>
       <r>    -5.0808     0.0000    32.0000 </r>
       <r>    -4.9470     0.0000    32.0000 </r>
       <r>    -4.8131     0.0000    32.0000 </r>
       <r>    -4.6793     0.0000    32.0000 </r>
       <r>    -4.5455     0.0000    32.0000 </r>
       <r>    -4.4117     0.0000    32.0000 </r>
       <r>    -4.2779     0.0000    32.0000 </r>
       <r>    -4.1441     0.0000    32.0000 </r>
       <r>    -4.0103     0.0000    32.0000 </r>
       <r>    -3.8764     0.0000    32.0000 </r>
       <r>    -3.7426     0.0000    32.0000 </r>
       <r>    -3.6088     0.0000    32.0000 </r>
       <r>    -3.4750     0.0000    32.0000 </r>
       <r>    -3.3412     0.0000    32.0000 </r>
       <r>    -3.2074     0.0000    32.0000 </r>
       <r>    -3.0735     0.0000    32.0000 </r>
       <r>    -2.9397     0.0000    32.0000 </r>
       <r>    -2.8059     0.0000    32.0000 </r>
       <r>    -2.6721     0.0000    32.0000 </r>
       <r>    -2.5383     0.0000    32.0000 </r>
       <r>    -2.4045     0.0000    32.0000 </r>
       <r>    -2.2706     0.0000    32.0000 </r>
       <r>    -2.1368     0.0000    32.0000 </r>
       <r>    -2.0030     0.0000    32.0000 </r>
       <r>    -1.8692     0.0000    32.0000 </r>
       <r>    -1.7354     0.0000    32.0000 </r>
       <r>    -1.6016     0.0000    32.0000 </r>
       <r>    -1.4678     0.0000    32.0000 </r>
       <r>    -1.3339     0.0000    32.0000 </r>
       <r>    -1.2001     0.0000    32.0000 </r>
       <r>    -1.0663     0.0000    32.0000 </r>
       <r>    -0.9325     0.0012    32.0002 </r>
       <r>    -0.7987     0.0352    32.0049 </r>
       <r>    -0.6649     0.4246    32.0617 </r>
       <r>    -0.5310     2.2025    32.3564 </r>
       <r>    -0.3972     4.9526    33.0192 </r>
       <r>    -0.2634     4.8493    33.6681 </r>
       <r>    -0.1296     2.0672    33.9447 </r>
       <r>     0.0042     0.3819    33.9958 </r>
       <r>     0.1380     0.0303    33.9999 </r>
       <r>     0.2719     0.0010    34.0000 </r>
       <r>     0.4057     0.0000    34.0000 </r>
       <r>     0.5395     0.0000    34.0000 </r>
       <r>     0.6733     0.0000    34.0000 </r>
       <r>     0.8071     0.0000    34.0000 </r>
       <r>     0.9409     0.0000    34.0000 </r>
       <r>     1.0747     0.0000    34.0000 </r>
       <r>     1.2086     0.0000    34.0000 </r>
       <r>     1.3424     0.0009    34.0001 </r>
       <r>     1.4762     0.0321    34.0044 </r>
       <r>     1.6100     0.4834    34.0691 </r>
       <r>     1.7438     3.1409    34.4894 </r>
       <r>     1.8776     9.0526    35.7008 </r>
       <r>     2.0115    12.5553    37.3809 </r>
       <r>     2.1453    10.3777    38.7696 </r>
       <r>     2.2791     6.2915    39.6115 </r>
       <r>     2.4129     2.4078    39.9337 </r>
       <r>     2.5467     0.4558    39.9947 </r>
       <r>     2.6805     0.0384    39.9998 </r>
       <r>     2.8144     0.0014    40.0000 </r>
       <r>     2.9482     0.0000    40.0000 </r>
       <r>     3.0820     0.0000    40.0000 </r>
       <r>     3.2158     0.0000    40.0000 </r>
       <r>     3.3496     0.0000    40.0000 </r>
       <r>     3.4834     0.0000    40.0000 </r>
       <r>     3.6172     0.0000    40.0000 </r>
       <r>     3.7511     0.0000    40.0000 </r>
       <r>     3.8849     0.0000    40.0000 </r>
       <r>     4.0187     0.0000    40.0000 </r>
       <r>     4.1525     0.0000    40.0000 </r>
      </set>
     </set>
    </array>
   </total>
  </dos>
 </calculation>
 <structure name="finalpos" >
  <crystal>
   <varray name="basis" >
    <v>       8.00000000       0.00000000       0.00000000 </v>
    <v>       0.00000000       8.00000000       0.00000000 </v>
    <v>       0.00000000       0.00000000       8.00000000 </v>
   </varray>
   <i name="volume">    512.00000000 </i>
   <varray name="rec_basis" >
    <v>       0.12500000       0.00000000       0.00000000 </v>
    <v>       0.00000000       0.12500000       0.00000000 </v>
    <v>       0.00000000       0.00000000       0.12500000 </v>
   </varray>
  </crystal>
  <varray name="positions" >
   <v>       0.00000000       0.00000000       0.00000000 </v>
   <v>       0.09735437       0.09735437       0.09735437 </v>
   <v>       0.90264563       0.90264563       0.09735437 </v>
   <v>       0.90264563       0.09735437       0.90264563 </v>
   <v>       0.09735437       0.90264563       0.90264563 </v>
  </varray>
 </structure>
</modeling>
