   5   5   0   0
  0.1024000E+03  0.8000000E-09  0.8000000E-09  0.8000000E-09  0.5000000E-15
  1.000000000000000E-004
  CAR 
 unknown system                          
      3.71849371    -18.75454255  301     -8.19206920      1.00000000
    -18.755  0.0000E+00  0.0000E+00
    -18.680  0.0000E+00  0.0000E+00
    -18.605  0.0000E+00  0.0000E+00
    -18.530  0.0000E+00  0.0000E+00
    -18.455  0.0000E+00  0.0000E+00
    -18.380  0.0000E+00  0.0000E+00
    -18.305  0.0000E+00  0.0000E+00
    -18.230  0.0000E+00  0.0000E+00
    -18.155  0.0000E+00  0.0000E+00
    -18.080  0.0000E+00  0.0000E+00
    -18.005  0.0000E+00  0.0000E+00
    -17.931  0.1482E-15  0.1110E-16
    -17.856  0.9041E-14  0.6883E-15
    -17.781  0.5226E-12  0.3983E-13
    -17.706  0.2268E-10  0.1739E-11
    -17.631  0.7464E-09  0.5765E-10
    -17.556  0.1863E-07  0.1453E-08
    -17.481  0.3526E-06  0.2787E-07
    -17.406  0.5065E-05  0.4073E-06
    -17.331  0.5522E-04  0.4544E-05
    -17.256  0.4570E-03  0.3878E-04
    -17.181  0.2873E-02  0.2540E-03
    -17.107  0.1372E-01  0.1282E-02
    -17.032  0.4976E-01  0.5009E-02
    -16.957  0.1372E+00  0.1529E-01
    -16.882  0.2875E+00  0.3682E-01
    -16.807  0.4580E+00  0.7113E-01
    -16.732  0.5547E+00  0.1127E+00
    -16.657  0.5107E+00  0.1509E+00
    -16.582  0.3575E+00  0.1777E+00
    -16.507  0.1902E+00  0.1920E+00
    -16.432  0.7695E-01  0.1977E+00
    -16.357  0.2365E-01  0.1995E+00
    -16.283  0.5525E-02  0.1999E+00
    -16.208  0.9805E-03  0.2000E+00
    -16.133  0.1322E-03  0.2000E+00
    -16.058  0.1352E-04  0.2000E+00
    -15.983  0.1051E-05  0.2000E+00
    -15.908  0.6194E-07  0.2000E+00
    -15.833  0.2770E-08  0.2000E+00
    -15.758  0.9396E-10  0.2000E+00
    -15.683  0.2416E-11  0.2000E+00
    -15.608  0.4743E-13  0.2000E+00
    -15.533  0.5928E-15  0.2000E+00
    -15.458  0.0000E+00  0.2000E+00
    -15.384  0.0000E+00  0.2000E+00
    -15.309  0.0000E+00  0.2000E+00
    -15.234  0.0000E+00  0.2000E+00
    -15.159  0.0000E+00  0.2000E+00
    -15.084  0.0000E+00  0.2000E+00
    -15.009  0.0000E+00  0.2000E+00
    -14.934  0.0000E+00  0.2000E+00
    -14.859  0.0000E+00  0.2000E+00
    -14.784  0.0000E+00  0.2000E+00
    -14.709  0.0000E+00  0.2000E+00
    -14.634  0.0000E+00  0.2000E+00
    -14.560  0.0000E+00  0.2000E+00
    -14.485  0.0000E+00  0.2000E+00
    -14.410  0.0000E+00  0.2000E+00
    -14.335  0.0000E+00  0.2000E+00
    -14.260  0.0000E+00  0.2000E+00
    -14.185  0.0000E+00  0.2000E+00
    -14.110  0.0000E+00  0.2000E+00
    -14.035  0.0000E+00  0.2000E+00
    -13.960  0.0000E+00  0.2000E+00
    -13.885  0.0000E+00  0.2000E+00
    -13.810  0.0000E+00  0.2000E+00
    -13.736  0.0000E+00  0.2000E+00
    -13.661  0.0000E+00  0.2000E+00
    -13.586  0.0000E+00  0.2000E+00
    -13.511  0.0000E+00  0.2000E+00
    -13.436  0.0000E+00  0.2000E+00
    -13.361  0.0000E+00  0.2000E+00
    -13.286  0.0000E+00  0.2000E+00
    -13.211  0.0000E+00  0.2000E+00
    -13.136  0.0000E+00  0.2000E+00
    -13.061  0.0000E+00  0.2000E+00
    -12.986  0.0000E+00  0.2000E+00
    -12.912  0.0000E+00  0.2000E+00
    -12.837  0.0000E+00  0.2000E+00
    -12.762  0.0000E+00  0.2000E+00
    -12.687  0.0000E+00  0.2000E+00
    -12.612  0.0000E+00  0.2000E+00
    -12.537  0.0000E+00  0.2000E+00
    -12.462  0.0000E+00  0.2000E+00
    -12.387  0.0000E+00  0.2000E+00
    -12.312  0.0000E+00  0.2000E+00
    -12.237  0.0000E+00  0.2000E+00
    -12.162  0.0000E+00  0.2000E+00
    -12.088  0.0000E+00  0.2000E+00
    -12.013  0.0000E+00  0.2000E+00
    -11.938  0.0000E+00  0.2000E+00
    -11.863  0.0000E+00  0.2000E+00
    -11.788  0.0000E+00  0.2000E+00
    -11.713  0.0000E+00  0.2000E+00
    -11.638  0.0000E+00  0.2000E+00
    -11.563  0.0000E+00  0.2000E+00
    -11.488  0.0000E+00  0.2000E+00
    -11.413  0.0000E+00  0.2000E+00
    -11.338  0.0000E+00  0.2000E+00
    -11.264  0.0000E+00  0.2000E+00
    -11.189  0.0000E+00  0.2000E+00
    -11.114  0.0000E+00  0.2000E+00
    -11.039  0.0000E+00  0.2000E+00
    -10.964  0.0000E+00  0.2000E+00
    -10.889  0.0000E+00  0.2000E+00
    -10.814  0.0000E+00  0.2000E+00
    -10.739  0.0000E+00  0.2000E+00
    -10.664  0.0000E+00  0.2000E+00
    -10.589  0.0000E+00  0.2000E+00
    -10.514  0.0000E+00  0.2000E+00
    -10.440  0.0000E+00  0.2000E+00
    -10.365  0.0000E+00  0.2000E+00
    -10.290  0.5335E-14  0.2000E+00
    -10.215  0.3388E-12  0.2000E+00
    -10.140  0.1637E-10  0.2000E+00
    -10.065  0.5994E-09  0.2000E+00
     -9.990  0.1665E-07  0.2000E+00
     -9.915  0.3506E-06  0.2000E+00
     -9.840  0.5603E-05  0.2000E+00
     -9.765  0.6796E-04  0.2000E+00
     -9.690  0.6257E-03  0.2001E+00
     -9.616  0.4374E-02  0.2004E+00
     -9.541  0.2323E-01  0.2021E+00
     -9.466  0.9371E-01  0.2091E+00
     -9.391  0.2873E+00  0.2307E+00
     -9.316  0.6694E+00  0.2808E+00
     -9.241  0.1186E+01  0.3696E+00
     -9.166  0.1596E+01  0.4892E+00
     -9.091  0.1634E+01  0.6116E+00
     -9.016  0.1272E+01  0.7069E+00
     -8.941  0.7524E+00  0.7632E+00
     -8.866  0.3384E+00  0.7886E+00
     -8.791  0.1157E+00  0.7972E+00
     -8.717  0.3005E-01  0.7995E+00
     -8.642  0.5930E-02  0.7999E+00
     -8.567  0.8890E-03  0.8000E+00
     -8.492  0.1012E-03  0.8000E+00
     -8.417  0.8747E-05  0.8000E+00
     -8.342  0.5737E-06  0.8000E+00
     -8.267  0.2855E-07  0.8000E+00
     -8.192  0.1078E-08  0.8000E+00
     -8.117  0.3085E-10  0.8000E+00
     -8.042  0.6705E-12  0.8000E+00
     -7.967  0.1067E-13  0.8000E+00
     -7.893  0.0000E+00  0.8000E+00
     -7.818  0.0000E+00  0.8000E+00
     -7.743  0.0000E+00  0.8000E+00
     -7.668  0.0000E+00  0.8000E+00
     -7.593  0.0000E+00  0.8000E+00
     -7.518  0.0000E+00  0.8000E+00
     -7.443  0.0000E+00  0.8000E+00
     -7.368  0.0000E+00  0.8000E+00
     -7.293  0.0000E+00  0.8000E+00
     -7.218  0.0000E+00  0.8000E+00
     -7.143  0.0000E+00  0.8000E+00
     -7.069  0.0000E+00  0.8000E+00
     -6.994  0.0000E+00  0.8000E+00
     -6.919  0.0000E+00  0.8000E+00
     -6.844  0.0000E+00  0.8000E+00
     -6.769  0.0000E+00  0.8000E+00
     -6.694  0.0000E+00  0.8000E+00
     -6.619  0.0000E+00  0.8000E+00
     -6.544  0.0000E+00  0.8000E+00
     -6.469  0.0000E+00  0.8000E+00
     -6.394  0.0000E+00  0.8000E+00
     -6.319  0.0000E+00  0.8000E+00
     -6.245  0.0000E+00  0.8000E+00
     -6.170  0.0000E+00  0.8000E+00
     -6.095  0.0000E+00  0.8000E+00
     -6.020  0.0000E+00  0.8000E+00
     -5.945  0.0000E+00  0.8000E+00
     -5.870  0.0000E+00  0.8000E+00
     -5.795  0.0000E+00  0.8000E+00
     -5.720  0.0000E+00  0.8000E+00
     -5.645  0.0000E+00  0.8000E+00
     -5.570  0.0000E+00  0.8000E+00
     -5.495  0.0000E+00  0.8000E+00
     -5.421  0.0000E+00  0.8000E+00
     -5.346  0.0000E+00  0.8000E+00
     -5.271  0.0000E+00  0.8000E+00
     -5.196  0.0000E+00  0.8000E+00
     -5.121  0.0000E+00  0.8000E+00
     -5.046  0.0000E+00  0.8000E+00
     -4.971  0.0000E+00  0.8000E+00
     -4.896  0.0000E+00  0.8000E+00
     -4.821  0.0000E+00  0.8000E+00
     -4.746  0.0000E+00  0.8000E+00
     -4.671  0.0000E+00  0.8000E+00
     -4.597  0.0000E+00  0.8000E+00
     -4.522  0.0000E+00  0.8000E+00
     -4.447  0.0000E+00  0.8000E+00
     -4.372  0.0000E+00  0.8000E+00
     -4.297  0.0000E+00  0.8000E+00
     -4.222  0.0000E+00  0.8000E+00
     -4.147  0.0000E+00  0.8000E+00
     -4.072  0.0000E+00  0.8000E+00
     -3.997  0.0000E+00  0.8000E+00
     -3.922  0.0000E+00  0.8000E+00
     -3.847  0.0000E+00  0.8000E+00
     -3.773  0.0000E+00  0.8000E+00
     -3.698  0.0000E+00  0.8000E+00
     -3.623  0.0000E+00  0.8000E+00
     -3.548  0.0000E+00  0.8000E+00
     -3.473  0.0000E+00  0.8000E+00
     -3.398  0.0000E+00  0.8000E+00
     -3.323  0.0000E+00  0.8000E+00
     -3.248  0.0000E+00  0.8000E+00
     -3.173  0.0000E+00  0.8000E+00
     -3.098  0.0000E+00  0.8000E+00
     -3.023  0.0000E+00  0.8000E+00
     -2.949  0.0000E+00  0.8000E+00
     -2.874  0.0000E+00  0.8000E+00
     -2.799  0.0000E+00  0.8000E+00
     -2.724  0.0000E+00  0.8000E+00
     -2.649  0.0000E+00  0.8000E+00
     -2.574  0.0000E+00  0.8000E+00
     -2.499  0.0000E+00  0.8000E+00
     -2.424  0.0000E+00  0.8000E+00
     -2.349  0.0000E+00  0.8000E+00
     -2.274  0.0000E+00  0.8000E+00
     -2.199  0.0000E+00  0.8000E+00
     -2.124  0.0000E+00  0.8000E+00
     -2.050  0.0000E+00  0.8000E+00
     -1.975  0.0000E+00  0.8000E+00
     -1.900  0.0000E+00  0.8000E+00
     -1.825  0.0000E+00  0.8000E+00
     -1.750  0.3557E-14  0.8000E+00
     -1.675  0.2110E-12  0.8000E+00
     -1.600  0.9769E-11  0.8000E+00
     -1.525  0.3426E-09  0.8000E+00
     -1.450  0.9110E-08  0.8000E+00
     -1.375  0.1838E-06  0.8000E+00
     -1.300  0.2813E-05  0.8000E+00
     -1.226  0.3267E-04  0.8000E+00
     -1.151  0.2881E-03  0.8000E+00
     -1.076  0.1929E-02  0.8002E+00
     -1.001  0.9811E-02  0.8009E+00
     -0.926  0.3791E-01  0.8037E+00
     -0.851  0.1113E+00  0.8121E+00
     -0.776  0.2485E+00  0.8307E+00
     -0.701  0.4216E+00  0.8623E+00
     -0.626  0.5438E+00  0.9030E+00
     -0.551  0.5333E+00  0.9430E+00
     -0.476  0.3976E+00  0.9727E+00
     -0.402  0.2253E+00  0.9896E+00
     -0.327  0.9708E-01  0.9969E+00
     -0.252  0.3179E-01  0.9993E+00
     -0.177  0.7909E-02  0.9999E+00
     -0.102  0.1495E-02  0.1000E+01
     -0.027  0.2147E-03  0.1000E+01
      0.048  0.2341E-04  0.1000E+01
      0.123  0.1937E-05  0.1000E+01
      0.198  0.1217E-06  0.1000E+01
      0.273  0.5799E-08  0.1000E+01
      0.348  0.2096E-09  0.1000E+01
      0.422  0.5746E-11  0.1000E+01
      0.497  0.1195E-12  0.1000E+01
      0.572  0.4002E-14  0.1000E+01
      0.647  0.1414E-12  0.1000E+01
      0.722  0.7250E-11  0.1000E+01
      0.797  0.2819E-09  0.1000E+01
      0.872  0.8310E-08  0.1000E+01
      0.947  0.1858E-06  0.1000E+01
      1.022  0.3152E-05  0.1000E+01
      1.097  0.4058E-04  0.1000E+01
      1.172  0.3965E-03  0.1000E+01
      1.246  0.2942E-02  0.1000E+01
      1.321  0.1658E-01  0.1001E+01
      1.396  0.7096E-01  0.1007E+01
      1.471  0.2308E+00  0.1024E+01
      1.546  0.5707E+00  0.1067E+01
      1.621  0.1072E+01  0.1147E+01
      1.696  0.1532E+01  0.1262E+01
      1.771  0.1664E+01  0.1387E+01
      1.846  0.1374E+01  0.1490E+01
      1.921  0.8625E+00  0.1554E+01
      1.996  0.4116E+00  0.1585E+01
      2.070  0.1493E+00  0.1596E+01
      2.145  0.4115E-01  0.1599E+01
      2.220  0.8618E-02  0.1600E+01
      2.295  0.1371E-02  0.1600E+01
      2.370  0.1656E-03  0.1600E+01
      2.445  0.1519E-04  0.1600E+01
      2.520  0.1058E-05  0.1600E+01
      2.595  0.5588E-07  0.1600E+01
      2.670  0.2239E-08  0.1600E+01
      2.745  0.6804E-10  0.1600E+01
      2.820  0.1568E-11  0.1600E+01
      2.894  0.2757E-13  0.1600E+01
      2.969  0.0000E+00  0.1600E+01
      3.044  0.0000E+00  0.1600E+01
      3.119  0.0000E+00  0.1600E+01
      3.194  0.0000E+00  0.1600E+01
      3.269  0.0000E+00  0.1600E+01
      3.344  0.0000E+00  0.1600E+01
      3.419  0.0000E+00  0.1600E+01
      3.494  0.0000E+00  0.1600E+01
      3.569  0.0000E+00  0.1600E+01
      3.644  0.0000E+00  0.1600E+01
      3.718  0.0000E+00  0.1600E+01
