    5    5   10    1
  0.1024000E+03  0.8000000E-09  0.8000000E-09  0.8000000E-09  0.5000000E-15
  1.000000000000000E-004
  CAR 
 unknown system                          
    8    1    8
 
  0.0000000E+00  0.0000000E+00  0.0000000E+00  0.1000000E+01
   1      -16.754543
   2       -9.159656
   3       -9.159656
   4       -9.159656
   5       -0.631643
   6        1.718492
   7        1.718492
   8        1.718494
