       N       E                     dE             d eps       ncg     rms          rms(c)
DAV:   1     0.468381935304E+02    0.46838E+02   -0.16457E+03    16   0.515E+02
DAV:   2    -0.193667044484E+02   -0.66205E+02   -0.66205E+02    32   0.849E+01
DAV:   3    -0.273386307049E+02   -0.79719E+01   -0.79719E+01    16   0.566E+01
DAV:   4    -0.276917292053E+02   -0.35310E+00   -0.35310E+00    32   0.134E+01
DAV:   5    -0.276918103651E+02   -0.81160E-04   -0.81161E-04    32   0.237E-01    0.862E+00
DAV:   6    -0.246937406343E+02    0.29981E+01   -0.91689E+00    24   0.174E+01    0.386E+00
DAV:   7    -0.241886774798E+02    0.50506E+00   -0.81005E-01    32   0.501E+00    0.195E+00
DAV:   8    -0.240224629000E+02    0.16621E+00   -0.20081E-01    16   0.311E+00    0.274E-01
DAV:   9    -0.240219375857E+02    0.52531E-03   -0.58077E-03    16   0.480E-01    0.155E-01
DAV:  10    -0.240198252214E+02    0.21124E-02   -0.16604E-03    16   0.297E-01    0.680E-02
DAV:  11    -0.240278499929E+02   -0.80248E-02   -0.20030E-03    16   0.276E-01    0.643E-02
DAV:  12    -0.240299669574E+02   -0.21170E-02   -0.63419E-04    16   0.177E-01    0.250E-02
DAV:  13    -0.240311660100E+02   -0.11991E-02   -0.17920E-04    16   0.849E-02    0.531E-03
DAV:  14    -0.240312084780E+02   -0.42468E-04   -0.18744E-06    16   0.107E-02
   1 F= -.24031208E+02 E0= -.24031208E+02  d E =-.240312E+02
       N       E                     dE             d eps       ncg     rms          rms(c)
DAV:   1    -0.240352529296E+02   -0.40869E-02   -0.20604E-01    16   0.406E+00    0.249E-01
DAV:   2    -0.240331769179E+02    0.20760E-02   -0.56697E-03    24   0.495E-01    0.959E-02
DAV:   3    -0.240329914918E+02    0.18543E-03   -0.26051E-03    24   0.294E-01    0.374E-02
DAV:   4    -0.240329900042E+02    0.14876E-05   -0.24615E-06    16   0.166E-02
   2 F= -.24032990E+02 E0= -.24032990E+02  d E =-.178153E-02
       N       E                     dE             d eps       ncg     rms          rms(c)
DAV:   1    -0.240345518763E+02   -0.15604E-02   -0.32804E-02    16   0.160E+00    0.125E-01
DAV:   2    -0.240339702675E+02    0.58161E-03   -0.16613E-03    16   0.238E-01    0.405E-02
DAV:   3    -0.240339459632E+02    0.24304E-04   -0.67070E-04    16   0.166E-01
   3 F= -.24033946E+02 E0= -.24033946E+02  d E =-.273749E-02
