 vasp.5.2.12 11Nov11 complex                                                    
  
 executed on             LinuxIFC date 2012.10.30  23:19:17
 running on    1 nodes
 distr:  one band on    1 nodes,    1 groups


--------------------------------------------------------------------------------------------------------


 INCAR:
 POTCAR:   PAW_PBE H 15Jun2001                    
 POTCAR:   PAW_PBE C 08Apr2002                    
 POTCAR:   PAW_PBE H 15Jun2001                    
   VRHFIN =H: ultrasoft test                                                    
   LEXCH  = PE                                                                  
   EATOM  =    12.4884 eV,     .9179 Ry                                         
                                                                                
   TITEL  = PAW_PBE H 15Jun2001                                                 
   LULTRA =        F    use ultrasoft PP ?                                      
   IUNSCR =        0    unscreen: 0-lin 1-nonlin 2-no                           
   RPACOR =     .000    partial core radius                                     
   POMASS =    1.000; ZVAL   =    1.000    mass and valenz                      
   RCORE  =    1.100    outmost cutoff radius                                   
   RWIGS  =     .700; RWIGS  =     .370    wigner-seitz radius (au A)           
   ENMAX  =  250.000; ENMIN  =  200.000 eV                                      
   RCLOC  =     .701    cutoff for local pot                                    
   LCOR   =        T    correct aug charges                                     
   LPAW   =        T    paw PP                                                  
   EAUG   =  400.000                                                            
   RMAX   =    2.174    core radius for proj-oper                               
   RAUG   =    1.200    factor for augmentation sphere                          
   RDEP   =    1.112    radius for radial grids                                 
   QCUT   =   -5.749; QGAM   =   11.498    optimization parameters              
                                                                                
   Description                                                                  
     l     E      TYP  RCUT    TYP  RCUT                                        
     0   .000     23  1.100                                                     
     0   .500     23  1.100                                                     
     1  -.300     23  1.100                                                     
  local pseudopotential read in
  atomic valenz-charges read in
  non local Contribution for L=           0  read in
    real space projection operators read in
  non local Contribution for L=           0  read in
    real space projection operators read in
  non local Contribution for L=           1  read in
    real space projection operators read in
    PAW grid and wavefunctions read in
 
   number of l-projection  operators is LMAX  =           3
   number of lm-projection operators is LMMAX =           5
 
 POTCAR:   PAW_PBE C 08Apr2002                    
   VRHFIN =C: s2p2                                                              
   LEXCH  = PE                                                                  
   EATOM  =   147.1560 eV,   10.8157 Ry                                         
                                                                                
   TITEL  = PAW_PBE C 08Apr2002                                                 
   LULTRA =        F    use ultrasoft PP ?                                      
   IUNSCR =        0    unscreen: 0-lin 1-nonlin 2-no                           
   RPACOR =     .000    partial core radius                                     
   POMASS =   12.011; ZVAL   =    4.000    mass and valenz                      
   RCORE  =    1.500    outmost cutoff radius                                   
   RWIGS  =    1.630; RWIGS  =     .863    wigner-seitz radius (au A)           
   ENMAX  =  400.000; ENMIN  =  300.000 eV                                      
   ICORE  =        2    local potential                                         
   LCOR   =        T    correct aug charges                                     
   LPAW   =        T    paw PP                                                  
   EAUG   =  644.873                                                            
   DEXC   =     .000                                                            
   RMAX   =    2.266    core radius for proj-oper                               
   RAUG   =    1.300    factor for augmentation sphere                          
   RDEP   =    1.501    radius for radial grids                                 
   RDEPT  =    1.300    core radius for aug-charge                              
   QCUT   =   -5.516; QGAM   =   11.032    optimization parameters              
                                                                                
   Description                                                                  
     l     E      TYP  RCUT    TYP  RCUT                                        
     0   .000     23  1.200                                                     
     0   .000     23  1.200                                                     
     1   .000     23  1.500                                                     
     1  2.500     23  1.500                                                     
     2   .000      7  1.500                                                     
  local pseudopotential read in
  atomic valenz-charges read in
  non local Contribution for L=           0  read in
    real space projection operators read in
  non local Contribution for L=           0  read in
    real space projection operators read in
  non local Contribution for L=           1  read in
    real space projection operators read in
  non local Contribution for L=           1  read in
    real space projection operators read in
    PAW grid and wavefunctions read in
 
   number of l-projection  operators is LMAX  =           4
   number of lm-projection operators is LMMAX =           8
 
 PAW_PBE H 15Jun2001                    :
 energy of atom  1       EATOM=  -12.4884
 kinetic energy error for atom=    0.0020 (will be added to EATOM!!)
 PAW_PBE C 08Apr2002                    :
 energy of atom  2       EATOM= -147.1560
 kinetic energy error for atom=    0.0076 (will be added to EATOM!!)
 
 
 POSCAR:  H  C                                   
  positions in cartesian coordinates
  No initial velocities read in
 exchange correlation table for  LEXCH =        8
   RHO(1)=    0.500       N(1)  =     2000
   RHO(2)=  100.500       N(2)  =     4000
 


--------------------------------------------------------------------------------------------------------


 ion  position               nearest neighbor table
   1  0.079  0.079  0.079-   5 1.09
   2  0.921  0.921  0.079-   5 1.09
   3  0.079  0.921  0.921-   5 1.09
   4  0.921  0.079  0.921-   5 1.09
   5  0.000  0.000  0.000-   1 1.09   2 1.09   3 1.09   4 1.09
 
  LATTYP: Found a simple cubic cell.
 ALAT       =     8.0000000000
  
  Lattice vectors:
  
 A1 = (   8.0000000000,   0.0000000000,   0.0000000000)
 A2 = (   0.0000000000,   8.0000000000,   0.0000000000)
 A3 = (   0.0000000000,   0.0000000000,   8.0000000000)
 Subroutine PRICEL returns:
 Original cell was already a primitive cell.
 

Analysis of symmetry for initial positions (statically):

 Routine SETGRP: Setting up the symmetry group for a 
 simple cubic supercell.


 Subroutine GETGRP returns: Found 24 space group operations
 (whereof 24 operations were pure point group operations)
 out of a pool of 48 trial point group operations.


The static configuration has the point symmetry T_d .

Analysis of symmetry for dynamics (positions and initial velocities):

 Subroutine DYNSYM returns: Found 24 space group operations
 (whereof 24 operations were pure point group operations)
 out of a pool of 24 trial space group operations
 (whereof 24 operations were pure point group operations)
 and found also     1 'primitive' translations


The dynamic configuration has the point symmetry T_d .
 
 
 KPOINTS: KPOINTS created by Atomic Simulation Env

Automatic generation of k-mesh.
 
 Subroutine IBZKPT returns following result:
 ===========================================
 
 Found      1 irreducible k-points:
 
 Following reciprocal coordinates:
            Coordinates               Weight
  0.000000  0.000000  0.000000      1.000000
 
 Following cartesian coordinates:
            Coordinates               Weight
  0.000000  0.000000  0.000000      1.000000
 


--------------------------------------------------------------------------------------------------------




 Dimension of arrays:
   k-points           NKPTS =      1   k-points in BZ     NKDIM =      1   number of bands    NBANDS=      8
   number of dos      NEDOS =    301   number of ions     NIONS =      5
   non local maximal  LDIM  =      4   non local SUM 2l+1 LMDIM =      8
   total plane-waves  NPLWV = 110592
   max r-space proj   IRMAX =      1   max aug-charges    IRDMAX=   2748
   dimension x,y,z NGX =    48 NGY =   48 NGZ =   48
   dimension x,y,z NGXF=    96 NGYF=   96 NGZF=   96
   support grid    NGXF=    96 NGYF=   96 NGZF=   96
   ions per type =               4   1
 NGX,Y,Z   is equivalent  to a cutoff of   9.97,  9.97,  9.97 a.u.
 NGXF,Y,Z  is equivalent  to a cutoff of  19.95, 19.95, 19.95 a.u.


 I would recommend the setting:
   dimension x,y,z NGX =    44 NGY =   44 NGZ =   44
 SYSTEM =  unknown system                          
 POSCAR =   H  C                                   

 Startparameter for this run:
   NWRITE =      2    write-flag & timer
   PREC   = normal    normal or accurate (medium, high low for compatibility)
   ISTART =      0    job   : 0-new  1-cont  2-samecut
   ICHARG =      2    charge: 1-file 2-atom 10-const
   ISPIN  =      1    spin polarized calculation?
   LNONCOLLINEAR =      F non collinear calculations
   LSORBIT =      F    spin-orbit coupling
   INIWAV =      1    electr: 0-lowe 1-rand  2-diag
   LASPH  =      F    aspherical Exc in radial PAW
   METAGGA=      F    non-selfconsistent MetaGGA calc.

 Electronic Relaxation 1
   ENCUT  =  500.0 eV  36.75 Ry    6.06 a.u.  14.59 14.59 14.59*2*pi/ulx,y,z
   ENINI  =  500.0     initial cutoff
   ENAUG  =  644.9 eV  augmentation charge cutoff
   NELM   =     60;   NELMIN=  2; NELMDL= -5     # of ELM steps 
   EDIFF  = 0.1E-03   stopping-criterion for ELM
   LREAL  =      F    real-space projection
   NLSPLINE    = F    spline interpolate recip. space projectors
   LCOMPAT=      F    compatible to vasp.4.4
   GGA_COMPAT  = T    GGA compatible to vasp.4.4-vasp.4.6
   LMAXPAW     = -100 max onsite density
   LMAXMIX     =    2 max onsite mixed and CHGCAR
   VOSKOWN=      0    Vosko Wilk Nusair interpolation
   ROPT   =    0.00000   0.00000
 Ionic relaxation
   EDIFFG = 0.1E-02   stopping-criterion for IOM
   NSW    =     10    number of steps for IOM
   NBLOCK =      1;   KBLOCK =     10    inner block; outer block 
   IBRION =      2    ionic relax: 0-MD 1-quasi-New 2-CG
   NFREE  =      1    steps in history (QN), initial steepest desc. (CG)
   ISIF   =      2    stress and relaxation
   IWAVPR =     11    prediction:  0-non 1-charg 2-wave 3-comb
   ISYM   =      2    0-nonsym 1-usesym 2-fastsym
   LCORR  =      T    Harris-Foulkes like correction to forces

   POTIM  = 0.5000    time-step for ionic-motion
   TEIN   =    0.0    initial temperature
   TEBEG  =    0.0;   TEEND  =   0.0 temperature during run
   SMASS  =  -3.00    Nose mass-parameter (am)
   estimated Nose-frequenzy (Omega)   =  0.10E-29 period in steps =****** mass=  -0.146E-26a.u.
   SCALEE = 1.0000    scale energy and forces
   NPACO  =    256;   APACO  = 16.0  distance and # of slots for P.C.
   PSTRESS=    0.0 pullay stress

  Mass of Ions in am
   POMASS =   1.00 12.01
  Ionic Valenz
   ZVAL   =   1.00  4.00
  Atomic Wigner-Seitz radii
   RWIGS  =  -1.00 -1.00
  virtual crystal weights 
   VCA    =   1.00  1.00
   NELECT =       8.0000    total number of electrons
   NUPDOWN=      -1.0000    fix difference up-down

 DOS related values:
   EMIN   =  10.00;   EMAX   =-10.00  energy-range for DOS
   EFERMI =   0.00
   ISMEAR =     0;   SIGMA  =   0.20  broadening in eV -4-tet -1-fermi 0-gaus

 Electronic relaxation 2 (details)
   IALGO  =     38    algorithm
   LDIAG  =      T    sub-space diagonalisation (order eigenvalues)
   LSUBROT=      T    optimize rotation matrix (better conditioning)
   TURBO    =      0    0=normal 1=particle mesh
   IRESTART =      0    0=no restart 2=restart with 2 vectors
   NREBOOT  =      0    no. of reboots
   NMIN     =      0    reboot dimension
   EREF     =   0.00    reference energy to select bands
   IMIX   =      4    mixing-type and parameters
     AMIX     =   0.40;   BMIX     =  1.00
     AMIX_MAG =   1.60;   BMIX_MAG =  1.00
     AMIN     =   0.10
     WC   =   100.;   INIMIX=   1;  MIXPRE=   1

 Intra band minimization:
   WEIMIN = 0.0010     energy-eigenvalue tresh-hold
   EBREAK =  0.31E-05  absolut break condition
   DEPER  =   0.30     relativ break condition  

   TIME   =   0.40     timestep for ELM

  volume/ion in A,a.u.               =     102.40       691.03
  Fermi-wavevector in a.u.,A,eV,Ry     =   0.409275  0.773417  2.279054  0.167506
  Thomas-Fermi vector in A             =   1.364147
 
 Write flags
   LWAVE  =      T    write WAVECAR
   LCHARG =      T    write CHGCAR
   LVTOT  =      F    write LOCPOT, total local potential
   LVHAR  =      F    write LOCPOT, Hartree potential only
   LELF   =      F    write electronic localiz. function (ELF)
   LORBIT =      0    0 simple, 1 ext, 2 COOP (PROOUT)


 Dipole corrections
   LMONO  =      F    monopole corrections only (constant potential shift)
   LDIPOL =      F    correct potential (dipole corrections)
   IDIPOL =      0    1-x, 2-y, 3-z, 4-all directions 
   EPSILON=  1.0000000 bulk dielectric constant

 Exchange correlation treatment:
   GGA     =    --    GGA type
   LEXCH   =     8    internal setting for exchange type
   VOSKOWN=      0    Vosko Wilk Nusair interpolation
   LHFCALC =     F    Hartree Fock is set to
   LHFONE  =     F    Hartree Fock one center treatment
   AEXX    =    0.0000 exact exchange contribution

 Linear response parameters
   LEPSILON=     F    determine dielectric tensor
   LRPA    =     F    only Hartree local field effects (RPA)
   LNABLA  =     F    use nabla operator in PAW spheres
   LVEL    =     F    velocity operator in full k-point grid
   LINTERFAST=   F  fast interpolation
   KINTER  =     0    interpolate to denser k-point grid
   CSHIFT  =0.1000    complex shift for real part using Kramers Kronig
   OMEGAMAX=  -1.0    maximum frequency
   RTIME   =    0.100 relaxation time in fs

 Orbital magnetization related:
   ORBITALMAG=     F  switch on orbital magnetization
   LCHIMAG   =     F  perturbation theory with respect to B field
   DQ        =  0.001000  dq finite difference perturbation B field



--------------------------------------------------------------------------------------------------------


 conjugate gradient relaxation of ions
 charge density and potential will be updated during run
 non-spin polarized calculation
 Variant of blocked Davidson
 Davidson routine will perform the subspace rotation
 perform sub-space diagonalisation
    after iterative eigenvector-optimisation
 modified Broyden-mixing scheme, WC =      100.0
 initial mixing is a Kerker type mixing with AMIX =  0.4000 and BMIX =      1.0000
 Hartree-type preconditioning will be used
 using additional bands            4
 reciprocal scheme for non local part
 calculate Harris-corrections to forces 
   (improved forces if not selfconsistent)
 use gradient corrections 
 use of overlap-Matrix (Vanderbilt PP)
 Gauss-broadening in eV      SIGMA  =   0.20


--------------------------------------------------------------------------------------------------------


  energy-cutoff  :      500.00
  volume of cell :      512.00
      direct lattice vectors                 reciprocal lattice vectors
     8.000000000  0.000000000  0.000000000     0.125000000  0.000000000  0.000000000
     0.000000000  8.000000000  0.000000000     0.000000000  0.125000000  0.000000000
     0.000000000  0.000000000  8.000000000     0.000000000  0.000000000  0.125000000

  length of vectors
     8.000000000  8.000000000  8.000000000     0.125000000  0.125000000  0.125000000


 
 k-points in units of 2pi/SCALE and weight: KPOINTS created by Atomic Simulation Env
   0.00000000  0.00000000  0.00000000       1.000
 
 k-points in reciprocal lattice and weights: KPOINTS created by Atomic Simulation Env
   0.00000000  0.00000000  0.00000000       1.000
 
 position of ions in fractional coordinates (direct lattice) 
   0.07863975  0.07863975  0.07863975
   0.92136025  0.92136025  0.07863975
   0.07863975  0.92136025  0.92136025
   0.92136025  0.07863975  0.92136025
   0.00000000  0.00000000  0.00000000
 
 position of ions in cartesian coordinates  (Angst):
   0.62911800  0.62911800  0.62911800
   7.37088200  7.37088200  0.62911800
   0.62911800  7.37088200  7.37088200
   7.37088200  0.62911800  7.37088200
   0.00000000  0.00000000  0.00000000
 


--------------------------------------------------------------------------------------------------------


 k-point  1 :  0.00000.00000.0000  plane waves:   13037

 maximum and minimum number of plane-waves per node :     13037    13037

 maximum number of plane-waves:     13037
 maximum index in each direction: 
   IXMAX=   14   IYMAX=   14   IZMAX=   14
   IXMIN=  -14   IYMIN=  -14   IZMIN=  -14

 WARNING: aliasing errors must be expected set NGX to  58 to avoid them
 WARNING: aliasing errors must be expected set NGY to  58 to avoid them
 WARNING: aliasing errors must be expected set NGZ to  58 to avoid them
 aliasing errors are usually negligible using standard VASP settings
 and one can safely disregard these warnings

 serial   3D FFT for wavefunctions
 parallel 3D FFT for charge:
    minimum data exchange during FFTs selected (reduces bandwidth)


 total amount of memory used by VASP on root node   119877. kBytes
========================================================================

   base      :      30000. kBytes
   nonl-proj :       2711. kBytes
   fftplans  :      30736. kBytes
   grid      :      54743. kBytes
   one-center:         15. kBytes
   wavefun   :       1672. kBytes
 
 Broyden mixing: mesh for mixing (old mesh)
   NGX = 29   NGY = 29   NGZ = 29
  (NGX  = 96   NGY  = 96   NGZ  = 96)
  gives a total of  24389 points

 initial charge density was supplied:
 charge density of overlapping atoms calculated
 number of electron       8.0000000 magnetization 
 keeping initial charge density in first step


--------------------------------------------------------------------------------------------------------


 Maximum index for augmentation-charges         2517 (set IRDMAX)


--------------------------------------------------------------------------------------------------------


 First call to EWALD:  gamma=   0.222
 Maximum number of real-space cells 3x 3x 3
 Maximum number of reciprocal cells 3x 3x 3

    FEWALD:  cpu time    0.00: real time    0.00


----------------------------------------- Iteration    1(   1)  ---------------------------------------


    POTLOK:  cpu time    1.37: real time    1.38
    SETDIJ:  cpu time    0.01: real time    0.01
     EDDAV:  cpu time    0.52: real time    0.52
       DOS:  cpu time    0.00: real time    0.00
    --------------------------------------------
      LOOP:  cpu time    1.91: real time    1.93

 eigenvalue-minimisations  :    16
 total energy-change (2. order) : 0.4683819E+02  (-0.1645684E+03)
 number of electron       8.0000000 magnetization 
 augmentation part        8.0000000 magnetization 

 Free energy of the ion-electron system (eV)
  ---------------------------------------------------
  alpha Z        PSCENC =         0.47054448
  Ewald energy   TEWEN  =        98.76290623
  -1/2 Hartree   DENC   =      -215.08095114
  -exchange  EXHF       =         0.00000000
  -V(xc)+E(xc)   XCENC  =        22.64688762
  PAW double counting   =        40.95674594      -42.14325651
  entropy T*S    EENTRO =         0.00000000
  eigenvalues    EBANDS =       -55.86882427
  atomic energy  EATOM  =       197.09414118
  ---------------------------------------------------
  free energy    TOTEN  =        46.83819353 eV

  energy without entropy =       46.83819353  energy(sigma->0) =       46.83819353


--------------------------------------------------------------------------------------------------------




----------------------------------------- Iteration    1(   2)  ---------------------------------------


     EDDAV:  cpu time    0.98: real time    0.98
       DOS:  cpu time    0.00: real time    0.00
    --------------------------------------------
      LOOP:  cpu time    0.98: real time    1.05

 eigenvalue-minimisations  :    32
 total energy-change (2. order) :-0.6620490E+02  (-0.6620490E+02)
 number of electron       8.0000000 magnetization 
 augmentation part        8.0000000 magnetization 

 Free energy of the ion-electron system (eV)
  ---------------------------------------------------
  alpha Z        PSCENC =         0.47054448
  Ewald energy   TEWEN  =        98.76290623
  -1/2 Hartree   DENC   =      -215.08095114
  -exchange  EXHF       =         0.00000000
  -V(xc)+E(xc)   XCENC  =        22.64688762
  PAW double counting   =        40.95674594      -42.14325651
  entropy T*S    EENTRO =         0.00000000
  eigenvalues    EBANDS =      -122.07372225
  atomic energy  EATOM  =       197.09414118
  ---------------------------------------------------
  free energy    TOTEN  =       -19.36670445 eV

  energy without entropy =      -19.36670445  energy(sigma->0) =      -19.36670445


--------------------------------------------------------------------------------------------------------




----------------------------------------- Iteration    1(   3)  ---------------------------------------


     EDDAV:  cpu time    0.56: real time    0.56
       DOS:  cpu time    0.00: real time    0.00
    --------------------------------------------
      LOOP:  cpu time    0.56: real time    0.58

 eigenvalue-minimisations  :    16
 total energy-change (2. order) :-0.7971926E+01  (-0.7971926E+01)
 number of electron       8.0000000 magnetization 
 augmentation part        8.0000000 magnetization 

 Free energy of the ion-electron system (eV)
  ---------------------------------------------------
  alpha Z        PSCENC =         0.47054448
  Ewald energy   TEWEN  =        98.76290623
  -1/2 Hartree   DENC   =      -215.08095114
  -exchange  EXHF       =         0.00000000
  -V(xc)+E(xc)   XCENC  =        22.64688762
  PAW double counting   =        40.95674594      -42.14325651
  entropy T*S    EENTRO =         0.00000000
  eigenvalues    EBANDS =      -130.04564850
  atomic energy  EATOM  =       197.09414118
  ---------------------------------------------------
  free energy    TOTEN  =       -27.33863070 eV

  energy without entropy =      -27.33863070  energy(sigma->0) =      -27.33863070


--------------------------------------------------------------------------------------------------------




----------------------------------------- Iteration    1(   4)  ---------------------------------------


     EDDAV:  cpu time    0.97: real time    0.97
       DOS:  cpu time    0.00: real time    0.00
    --------------------------------------------
      LOOP:  cpu time    0.97: real time    0.98

 eigenvalue-minimisations  :    32
 total energy-change (2. order) :-0.3530985E+00  (-0.3530985E+00)
 number of electron       8.0000000 magnetization 
 augmentation part        8.0000000 magnetization 

 Free energy of the ion-electron system (eV)
  ---------------------------------------------------
  alpha Z        PSCENC =         0.47054448
  Ewald energy   TEWEN  =        98.76290623
  -1/2 Hartree   DENC   =      -215.08095114
  -exchange  EXHF       =         0.00000000
  -V(xc)+E(xc)   XCENC  =        22.64688762
  PAW double counting   =        40.95674594      -42.14325651
  entropy T*S    EENTRO =         0.00000000
  eigenvalues    EBANDS =      -130.39874701
  atomic energy  EATOM  =       197.09414118
  ---------------------------------------------------
  free energy    TOTEN  =       -27.69172921 eV

  energy without entropy =      -27.69172921  energy(sigma->0) =      -27.69172921


--------------------------------------------------------------------------------------------------------




----------------------------------------- Iteration    1(   5)  ---------------------------------------


     EDDAV:  cpu time    0.97: real time    0.97
       DOS:  cpu time    0.00: real time    0.00
    CHARGE:  cpu time    0.21: real time    0.21
    MIXING:  cpu time    0.05: real time    0.05
    --------------------------------------------
      LOOP:  cpu time    1.22: real time    1.25

 eigenvalue-minimisations  :    32
 total energy-change (2. order) :-0.8115978E-04  (-0.8116070E-04)
 number of electron       7.9999978 magnetization 
 augmentation part        0.2309393 magnetization 

 Broyden mixing:
  rms(total) = 0.86220E+00    rms(broyden)= 0.86206E+00
  rms(prec ) = 0.14184E+01
  weight for this iteration     100.00

 Free energy of the ion-electron system (eV)
  ---------------------------------------------------
  alpha Z        PSCENC =         0.47054448
  Ewald energy   TEWEN  =        98.76290623
  -1/2 Hartree   DENC   =      -215.08095114
  -exchange  EXHF       =         0.00000000
  -V(xc)+E(xc)   XCENC  =        22.64688762
  PAW double counting   =        40.95674594      -42.14325651
  entropy T*S    EENTRO =         0.00000000
  eigenvalues    EBANDS =      -130.39882817
  atomic energy  EATOM  =       197.09414118
  ---------------------------------------------------
  free energy    TOTEN  =       -27.69181037 eV

  energy without entropy =      -27.69181037  energy(sigma->0) =      -27.69181037


--------------------------------------------------------------------------------------------------------




----------------------------------------- Iteration    1(   6)  ---------------------------------------


    POTLOK:  cpu time    1.54: real time    1.54
    SETDIJ:  cpu time    0.01: real time    0.01
     EDDAV:  cpu time    0.76: real time    0.76
       DOS:  cpu time    0.00: real time    0.00
    CHARGE:  cpu time    0.20: real time    0.20
    MIXING:  cpu time    0.05: real time    0.05
    --------------------------------------------
      LOOP:  cpu time    2.56: real time    2.57

 eigenvalue-minimisations  :    24
 total energy-change (2. order) : 0.2998070E+01  (-0.9168874E+00)
 number of electron       7.9999976 magnetization 
 augmentation part        0.2019198 magnetization 

 Broyden mixing:
  rms(total) = 0.38558E+00    rms(broyden)= 0.38553E+00
  rms(prec ) = 0.58060E+00
  weight for this iteration     100.00

 eigenvalues of (default mixing * dielectric matrix)
  average eigenvalue GAMMA=   1.2317
  1.2317

 Free energy of the ion-electron system (eV)
  ---------------------------------------------------
  alpha Z        PSCENC =         0.47054448
  Ewald energy   TEWEN  =        98.76290623
  -1/2 Hartree   DENC   =      -235.16170118
  -exchange  EXHF       =         0.00000000
  -V(xc)+E(xc)   XCENC  =        23.89153394
  PAW double counting   =        69.67377101      -71.08196751
  entropy T*S    EENTRO =         0.00000000
  eigenvalues    EBANDS =      -108.34296879
  atomic energy  EATOM  =       197.09414118
  ---------------------------------------------------
  free energy    TOTEN  =       -24.69374063 eV

  energy without entropy =      -24.69374063  energy(sigma->0) =      -24.69374063


--------------------------------------------------------------------------------------------------------




----------------------------------------- Iteration    1(   7)  ---------------------------------------


    POTLOK:  cpu time    1.53: real time    1.53
    SETDIJ:  cpu time    0.01: real time    0.01
     EDDAV:  cpu time    0.96: real time    0.96
       DOS:  cpu time    0.00: real time    0.00
    CHARGE:  cpu time    0.20: real time    0.20
    MIXING:  cpu time    0.05: real time    0.05
    --------------------------------------------
      LOOP:  cpu time    2.75: real time    2.77

 eigenvalue-minimisations  :    32
 total energy-change (2. order) : 0.5050632E+00  (-0.8100461E-01)
 number of electron       7.9999976 magnetization 
 augmentation part        0.1927295 magnetization 

 Broyden mixing:
  rms(total) = 0.19523E+00    rms(broyden)= 0.19521E+00
  rms(prec ) = 0.28289E+00
  weight for this iteration     100.00

 eigenvalues of (default mixing * dielectric matrix)
  average eigenvalue GAMMA=   1.7676
  1.2693  2.2660

 Free energy of the ion-electron system (eV)
  ---------------------------------------------------
  alpha Z        PSCENC =         0.47054448
  Ewald energy   TEWEN  =        98.76290623
  -1/2 Hartree   DENC   =      -245.63150972
  -exchange  EXHF       =         0.00000000
  -V(xc)+E(xc)   XCENC  =        24.68625162
  PAW double counting   =        84.61866075      -86.06214955
  entropy T*S    EENTRO =         0.00000000
  eigenvalues    EBANDS =       -98.12752248
  atomic energy  EATOM  =       197.09414118
  ---------------------------------------------------
  free energy    TOTEN  =       -24.18867748 eV

  energy without entropy =      -24.18867748  energy(sigma->0) =      -24.18867748


--------------------------------------------------------------------------------------------------------




----------------------------------------- Iteration    1(   8)  ---------------------------------------


    POTLOK:  cpu time    1.53: real time    1.53
    SETDIJ:  cpu time    0.01: real time    0.01
     EDDAV:  cpu time    0.56: real time    0.56
       DOS:  cpu time    0.00: real time    0.00
    CHARGE:  cpu time    0.20: real time    0.20
    MIXING:  cpu time    0.05: real time    0.05
    --------------------------------------------
      LOOP:  cpu time    2.35: real time    2.39

 eigenvalue-minimisations  :    16
 total energy-change (2. order) : 0.1662146E+00  (-0.2008064E-01)
 number of electron       7.9999976 magnetization 
 augmentation part        0.1900752 magnetization 

 Broyden mixing:
  rms(total) = 0.27405E-01    rms(broyden)= 0.27396E-01
  rms(prec ) = 0.62145E-01
  weight for this iteration     100.00

 eigenvalues of (default mixing * dielectric matrix)
  average eigenvalue GAMMA=   1.6381
  1.1949  1.8597  1.8597

 Free energy of the ion-electron system (eV)
  ---------------------------------------------------
  alpha Z        PSCENC =         0.47054448
  Ewald energy   TEWEN  =        98.76290623
  -1/2 Hartree   DENC   =      -252.88421968
  -exchange  EXHF       =         0.00000000
  -V(xc)+E(xc)   XCENC  =        25.34020247
  PAW double counting   =        92.71700448      -94.13578941
  entropy T*S    EENTRO =         0.00000000
  eigenvalues    EBANDS =       -91.38725266
  atomic energy  EATOM  =       197.09414118
  ---------------------------------------------------
  free energy    TOTEN  =       -24.02246290 eV

  energy without entropy =      -24.02246290  energy(sigma->0) =      -24.02246290


--------------------------------------------------------------------------------------------------------




----------------------------------------- Iteration    1(   9)  ---------------------------------------


    POTLOK:  cpu time    1.53: real time    1.53
    SETDIJ:  cpu time    0.01: real time    0.01
     EDDAV:  cpu time    0.56: real time    0.56
       DOS:  cpu time    0.00: real time    0.00
    CHARGE:  cpu time    0.20: real time    0.20
    MIXING:  cpu time    0.05: real time    0.05
    --------------------------------------------
      LOOP:  cpu time    2.35: real time    2.42

 eigenvalue-minimisations  :    16
 total energy-change (2. order) : 0.5253143E-03  (-0.5807733E-03)
 number of electron       7.9999976 magnetization 
 augmentation part        0.1895490 magnetization 

 Broyden mixing:
  rms(total) = 0.15499E-01    rms(broyden)= 0.15498E-01
  rms(prec ) = 0.29931E-01
  weight for this iteration     100.00

 eigenvalues of (default mixing * dielectric matrix)
  average eigenvalue GAMMA=   1.9365
  3.1663  2.4138  0.9395  1.2263

 Free energy of the ion-electron system (eV)
  ---------------------------------------------------
  alpha Z        PSCENC =         0.47054448
  Ewald energy   TEWEN  =        98.76290623
  -1/2 Hartree   DENC   =      -254.45025287
  -exchange  EXHF       =         0.00000000
  -V(xc)+E(xc)   XCENC  =        25.38579865
  PAW double counting   =        90.86254068      -92.27984639
  entropy T*S    EENTRO =         0.00000000
  eigenvalues    EBANDS =       -89.86776955
  atomic energy  EATOM  =       197.09414118
  ---------------------------------------------------
  free energy    TOTEN  =       -24.02193759 eV

  energy without entropy =      -24.02193759  energy(sigma->0) =      -24.02193759


--------------------------------------------------------------------------------------------------------




----------------------------------------- Iteration    1(  10)  ---------------------------------------


    POTLOK:  cpu time    1.50: real time    1.50
    SETDIJ:  cpu time    0.01: real time    0.01
     EDDAV:  cpu time    0.56: real time    0.56
       DOS:  cpu time    0.00: real time    0.00
    CHARGE:  cpu time    0.20: real time    0.20
    MIXING:  cpu time    0.05: real time    0.05
    --------------------------------------------
      LOOP:  cpu time    2.33: real time    2.61

 eigenvalue-minimisations  :    16
 total energy-change (2. order) : 0.2112364E-02  (-0.1660403E-03)
 number of electron       7.9999976 magnetization 
 augmentation part        0.1893471 magnetization 

 Broyden mixing:
  rms(total) = 0.67990E-02    rms(broyden)= 0.67985E-02
  rms(prec ) = 0.15001E-01
  weight for this iteration     100.00

 eigenvalues of (default mixing * dielectric matrix)
  average eigenvalue GAMMA=   2.2647
  4.1126  2.4918  2.4918  0.9966  1.2308

 Free energy of the ion-electron system (eV)
  ---------------------------------------------------
  alpha Z        PSCENC =         0.47054448
  Ewald energy   TEWEN  =        98.76290623
  -1/2 Hartree   DENC   =      -255.36463735
  -exchange  EXHF       =         0.00000000
  -V(xc)+E(xc)   XCENC  =        25.44285524
  PAW double counting   =        90.90445015      -92.31852299
  entropy T*S    EENTRO =         0.00000000
  eigenvalues    EBANDS =       -89.01156216
  atomic energy  EATOM  =       197.09414118
  ---------------------------------------------------
  free energy    TOTEN  =       -24.01982522 eV

  energy without entropy =      -24.01982522  energy(sigma->0) =      -24.01982522


--------------------------------------------------------------------------------------------------------




----------------------------------------- Iteration    1(  11)  ---------------------------------------


    POTLOK:  cpu time    1.28: real time    1.28
    SETDIJ:  cpu time    0.01: real time    0.01
     EDDAV:  cpu time    0.51: real time    0.51
       DOS:  cpu time    0.00: real time    0.00
    CHARGE:  cpu time    0.16: real time    0.16
    MIXING:  cpu time    0.05: real time    0.05
    --------------------------------------------
      LOOP:  cpu time    2.02: real time    2.03

 eigenvalue-minimisations  :    16
 total energy-change (2. order) :-0.8024771E-02  (-0.2002955E-03)
 number of electron       7.9999976 magnetization 
 augmentation part        0.1893505 magnetization 

 Broyden mixing:
  rms(total) = 0.64302E-02    rms(broyden)= 0.64297E-02
  rms(prec ) = 0.92614E-02
  weight for this iteration     100.00

 eigenvalues of (default mixing * dielectric matrix)
  average eigenvalue GAMMA=   2.2470
  4.6321  3.2275  2.2796  1.0798  1.0798  1.1830

 Free energy of the ion-electron system (eV)
  ---------------------------------------------------
  alpha Z        PSCENC =         0.47054448
  Ewald energy   TEWEN  =        98.76290623
  -1/2 Hartree   DENC   =      -255.81019813
  -exchange  EXHF       =         0.00000000
  -V(xc)+E(xc)   XCENC  =        25.45971048
  PAW double counting   =        91.13864387      -92.55178684
  entropy T*S    EENTRO =         0.00000000
  eigenvalues    EBANDS =       -88.59181127
  atomic energy  EATOM  =       197.09414118
  ---------------------------------------------------
  free energy    TOTEN  =       -24.02784999 eV

  energy without entropy =      -24.02784999  energy(sigma->0) =      -24.02784999


--------------------------------------------------------------------------------------------------------




----------------------------------------- Iteration    1(  12)  ---------------------------------------


    POTLOK:  cpu time    1.26: real time    1.26
    SETDIJ:  cpu time    0.01: real time    0.01
     EDDAV:  cpu time    0.51: real time    0.51
       DOS:  cpu time    0.00: real time    0.00
    CHARGE:  cpu time    0.16: real time    0.16
    MIXING:  cpu time    0.05: real time    0.05
    --------------------------------------------
      LOOP:  cpu time    2.00: real time    2.03

 eigenvalue-minimisations  :    16
 total energy-change (2. order) :-0.2116965E-02  (-0.6341931E-04)
 number of electron       7.9999976 magnetization 
 augmentation part        0.1893069 magnetization 

 Broyden mixing:
  rms(total) = 0.24986E-02    rms(broyden)= 0.24983E-02
  rms(prec ) = 0.38248E-02
  weight for this iteration     100.00

 eigenvalues of (default mixing * dielectric matrix)
  average eigenvalue GAMMA=   2.6184
  5.7974  3.6867  3.2468  2.2981  1.0069  1.1464  1.1464

 Free energy of the ion-electron system (eV)
  ---------------------------------------------------
  alpha Z        PSCENC =         0.47054448
  Ewald energy   TEWEN  =        98.76290623
  -1/2 Hartree   DENC   =      -255.61787280
  -exchange  EXHF       =         0.00000000
  -V(xc)+E(xc)   XCENC  =        25.43785748
  PAW double counting   =        91.05121128      -92.46636788
  entropy T*S    EENTRO =         0.00000000
  eigenvalues    EBANDS =       -88.76238692
  atomic energy  EATOM  =       197.09414118
  ---------------------------------------------------
  free energy    TOTEN  =       -24.02996696 eV

  energy without entropy =      -24.02996696  energy(sigma->0) =      -24.02996696


--------------------------------------------------------------------------------------------------------




----------------------------------------- Iteration    1(  13)  ---------------------------------------


    POTLOK:  cpu time    1.25: real time    1.25
    SETDIJ:  cpu time    0.01: real time    0.60
     EDDAV:  cpu time    0.51: real time    0.51
       DOS:  cpu time    0.00: real time    0.00
    CHARGE:  cpu time    0.16: real time    0.16
    MIXING:  cpu time    0.05: real time    0.06
    --------------------------------------------
      LOOP:  cpu time    1.99: real time    2.60

 eigenvalue-minimisations  :    16
 total energy-change (2. order) :-0.1199053E-02  (-0.1792008E-04)
 number of electron       7.9999976 magnetization 
 augmentation part        0.1892827 magnetization 

 Broyden mixing:
  rms(total) = 0.53121E-03    rms(broyden)= 0.53115E-03
  rms(prec ) = 0.71646E-03
  weight for this iteration     100.00

 eigenvalues of (default mixing * dielectric matrix)
  average eigenvalue GAMMA=   2.3842
  5.8075  3.9342  2.8537  2.3008  1.1770  1.0716  1.0558  0.8729

 Free energy of the ion-electron system (eV)
  ---------------------------------------------------
  alpha Z        PSCENC =         0.47054448
  Ewald energy   TEWEN  =        98.76290623
  -1/2 Hartree   DENC   =      -255.66702184
  -exchange  EXHF       =         0.00000000
  -V(xc)+E(xc)   XCENC  =        25.44167821
  PAW double counting   =        91.03256827      -92.44662464
  entropy T*S    EENTRO =         0.00000000
  eigenvalues    EBANDS =       -88.71935790
  atomic energy  EATOM  =       197.09414118
  ---------------------------------------------------
  free energy    TOTEN  =       -24.03116601 eV

  energy without entropy =      -24.03116601  energy(sigma->0) =      -24.03116601


--------------------------------------------------------------------------------------------------------




----------------------------------------- Iteration    1(  14)  ---------------------------------------


    POTLOK:  cpu time    1.25: real time    1.25
    SETDIJ:  cpu time    0.01: real time    0.01
     EDDAV:  cpu time    0.51: real time    0.51
       DOS:  cpu time    0.00: real time    0.00
    --------------------------------------------
      LOOP:  cpu time    1.78: real time    1.82

 eigenvalue-minimisations  :    16
 total energy-change (2. order) :-0.4246794E-04  (-0.1874367E-06)
 number of electron       7.9999976 magnetization 
 augmentation part        0.1892827 magnetization 

 Free energy of the ion-electron system (eV)
  ---------------------------------------------------
  alpha Z        PSCENC =         0.47054448
  Ewald energy   TEWEN  =        98.76290623
  -1/2 Hartree   DENC   =      -255.66017965
  -exchange  EXHF       =         0.00000000
  -V(xc)+E(xc)   XCENC  =        25.44115230
  PAW double counting   =        91.04799137      -92.46218339
  entropy T*S    EENTRO =         0.00000000
  eigenvalues    EBANDS =       -88.72558100
  atomic energy  EATOM  =       197.09414118
  ---------------------------------------------------
  free energy    TOTEN  =       -24.03120848 eV

  energy without entropy =      -24.03120848  energy(sigma->0) =      -24.03120848


--------------------------------------------------------------------------------------------------------




 average (electrostatic) potential at core
  the test charge radii are     0.5201  0.6991
  (the norm of the test charge is              1.0000)
       1 -41.4331       2 -41.4331       3 -41.4331       4 -41.4331       5 -57.7609
 
 
 
 E-fermi :  -8.2129     XC(G=0):  -1.2232     alpha+bet : -0.4118


 k-point   1 :       0.0000    0.0000    0.0000
  band No.  band energies     occupation 
      1     -16.8046      2.00000
      2      -9.1861      2.00000
      3      -9.1861      2.00000
      4      -9.1861      2.00000
      5      -0.6088      0.00000
      6       1.7307      0.00000
      7       1.7307      0.00000
      8       1.7307      0.00000


--------------------------------------------------------------------------------------------------------


 soft charge-density along one line, spin component           1
         0         1         2         3         4         5         6         7         8         9
 total charge-density along one line
 
 pseudopotential strength for first ion, spin component:           1
 -2.340  -0.011   0.001   0.001   0.001
 -0.011   0.049   0.001   0.001   0.001
  0.001   0.001  -0.337   0.002   0.002
  0.001   0.001   0.002  -0.337   0.002
  0.001   0.001   0.002   0.002  -0.337
 total augmentation occupancy for first ion, spin component:           1
  1.755  -0.498  -0.177  -0.177  -0.177
 -0.498   0.192   0.057   0.057   0.057
 -0.177   0.057   0.025   0.016   0.016
 -0.177   0.057   0.016   0.025   0.016
 -0.177   0.057   0.016   0.016   0.025


------------------------ aborting loop because EDIFF is reached ----------------------------------------


    CHARGE:  cpu time    0.16: real time    0.16
    FORLOC:  cpu time    0.14: real time    0.14
    FORNL :  cpu time    0.07: real time    0.08
    STRESS:  cpu time    0.36: real time    0.36
    FORHAR:  cpu time    0.44: real time    0.44
    MIXING:  cpu time    0.06: real time    0.06

  FORCE on cell =-STRESS in cart. coord.  units (eV):
  Direction    XX          YY          ZZ          XY          YZ          ZX
  --------------------------------------------------------------------------------------
  Alpha Z     0.47054     0.47054     0.47054
  Ewald      32.92094    32.92094    32.92094     0.00000     0.00000     0.00000
  Hartree    85.22050    85.22050    85.22050     0.00000     0.00000     0.00000
  E(xc)     -27.04864   -27.04864   -27.04864     0.00000     0.00000     0.00000
  Local    -177.16984  -177.16984  -177.16984     0.00000     0.00000     0.00000
  n-local   -15.97977   -15.97977   -15.97977     0.00000     0.00000     0.00000
  augment     0.12382     0.12382     0.12382     0.00000     0.00000     0.00000
  Kinetic   101.70380   101.70380   101.70380     0.00000     0.00000     0.00000
  Fock        0.00000     0.00000     0.00000     0.00000     0.00000     0.00000
  -------------------------------------------------------------------------------------
  Total       0.24136     0.24136     0.24136     0.00000     0.00000     0.00000
  in kB       0.75528     0.75528     0.75528     0.00000     0.00000     0.00000
  external pressure =        0.76 kB  Pullay stress =        0.00 kB


 VOLUME and BASIS-vectors are now :
 -----------------------------------------------------------------------------
  energy-cutoff  :      500.00
  volume of cell :      512.00
      direct lattice vectors                 reciprocal lattice vectors
     8.000000000  0.000000000  0.000000000     0.125000000  0.000000000  0.000000000
     0.000000000  8.000000000  0.000000000     0.000000000  0.125000000  0.000000000
     0.000000000  0.000000000  8.000000000     0.000000000  0.000000000  0.125000000

  length of vectors
     8.000000000  8.000000000  8.000000000     0.125000000  0.125000000  0.125000000


 FORCES acting on ions
    electron-ion (+dipol)            ewald-force                    non-local-force                 convergence-correction
 -----------------------------------------------------------------------------------------------
   -.305E+02 -.305E+02 -.305E+02   0.339E+02 0.339E+02 0.339E+02   -.324E+01 -.324E+01 -.324E+01   -.732E-05 -.732E-05 -.732E-05
   0.305E+02 0.305E+02 -.305E+02   -.339E+02 -.339E+02 0.339E+02   0.324E+01 0.324E+01 -.324E+01   0.732E-05 0.732E-05 -.732E-05
   -.305E+02 0.305E+02 0.305E+02   0.339E+02 -.339E+02 -.339E+02   -.324E+01 0.324E+01 0.324E+01   -.732E-05 0.732E-05 0.732E-05
   0.305E+02 -.305E+02 0.305E+02   -.339E+02 0.339E+02 -.339E+02   0.324E+01 -.324E+01 0.324E+01   0.732E-05 -.732E-05 0.732E-05
   -.232E-14 0.183E-15 -.172E-13   0.416E-13 0.259E-13 0.132E-13   0.310E-24 -.103E-23 0.103E-24   -.420E-13 -.414E-13 -.296E-14
 -----------------------------------------------------------------------------------------------
   0.101E-07 0.101E-07 0.926E-09   -.984E-15 0.454E-14 -.100E-14   0.444E-15 -.888E-15 -.444E-15   -.647E-13 -.621E-13 -.689E-14
 
 
 POSITION                                       TOTAL-FORCE (eV/Angst)
 -----------------------------------------------------------------------------------
      0.62912      0.62912      0.62912         0.121629      0.121629      0.121629
      7.37088      7.37088      0.62912        -0.121629     -0.121629      0.121629
      0.62912      7.37088      7.37088         0.121629     -0.121629     -0.121629
      7.37088      0.62912      7.37088        -0.121629      0.121629     -0.121629
      0.00000      0.00000      0.00000         0.000000      0.000000      0.000000
 -----------------------------------------------------------------------------------
    total drift:                                0.000000      0.000000      0.000000


--------------------------------------------------------------------------------------------------------



  FREE ENERGIE OF THE ION-ELECTRON SYSTEM (eV)
  ---------------------------------------------------
  free  energy   TOTEN  =       -24.031208 eV

  energy  without entropy=      -24.031208  energy(sigma->0) =      -24.031208
 


--------------------------------------------------------------------------------------------------------


    POTLOK:  cpu time    1.32: real time    1.32


--------------------------------------------------------------------------------------------------------




--------------------------------------------------------------------------------------------------------


    WAVPRE:  cpu time    0.32: real time    0.32
    FEWALD:  cpu time    0.00: real time    0.00
    ORTHCH:  cpu time    0.02: real time    0.02
     LOOP+:  cpu time   30.32: real time   31.91


----------------------------------------- Iteration    2(   1)  ---------------------------------------


    POTLOK:  cpu time    1.67: real time    1.68
    SETDIJ:  cpu time    0.01: real time    0.01
     EDDAV:  cpu time    0.60: real time    0.60
       DOS:  cpu time    0.00: real time    0.00
    CHARGE:  cpu time    0.23: real time    0.23
    MIXING:  cpu time    0.05: real time    0.05
    --------------------------------------------
      LOOP:  cpu time    2.57: real time    2.58

 eigenvalue-minimisations  :    16
 total energy-change (2. order) :-0.4086920E-02  (-0.2060362E-01)
 number of electron       7.9999982 magnetization 
 augmentation part        0.1857985 magnetization 

 Broyden mixing:
  rms(total) = 0.24900E-01    rms(broyden)= 0.24892E-01
  rms(prec ) = 0.37940E-01
  weight for this iteration     100.00

 Free energy of the ion-electron system (eV)
  ---------------------------------------------------
  alpha Z        PSCENC =         0.47054448
  Ewald energy   TEWEN  =        96.40073439
  -1/2 Hartree   DENC   =      -254.30293031
  -exchange  EXHF       =         0.00000000
  -V(xc)+E(xc)   XCENC  =        25.37096728
  PAW double counting   =        91.03988499      -92.45413322
  entropy T*S    EENTRO =         0.00000000
  eigenvalues    EBANDS =       -87.65446172
  atomic energy  EATOM  =       197.09414118
  ---------------------------------------------------
  free energy    TOTEN  =       -24.03525293 eV

  energy without entropy =      -24.03525293  energy(sigma->0) =      -24.03525293


--------------------------------------------------------------------------------------------------------




----------------------------------------- Iteration    2(   2)  ---------------------------------------


    POTLOK:  cpu time    1.57: real time    1.57
    SETDIJ:  cpu time    0.01: real time    0.01
     EDDAV:  cpu time    0.82: real time    0.82
       DOS:  cpu time    0.00: real time    0.00
    CHARGE:  cpu time    0.23: real time    0.23
    MIXING:  cpu time    0.05: real time    0.05
    --------------------------------------------
      LOOP:  cpu time    2.68: real time    2.69

 eigenvalue-minimisations  :    24
 total energy-change (2. order) : 0.2076012E-02  (-0.5669701E-03)
 number of electron       7.9999982 magnetization 
 augmentation part        0.1860231 magnetization 

 Broyden mixing:
  rms(total) = 0.95854E-02    rms(broyden)= 0.95849E-02
  rms(prec ) = 0.13948E-01
  weight for this iteration     100.00

 eigenvalues of (default mixing * dielectric matrix)
  average eigenvalue GAMMA=   1.6117
  1.6117

 Free energy of the ion-electron system (eV)
  ---------------------------------------------------
  alpha Z        PSCENC =         0.47054448
  Ewald energy   TEWEN  =        96.40073439
  -1/2 Hartree   DENC   =      -253.82332383
  -exchange  EXHF       =         0.00000000
  -V(xc)+E(xc)   XCENC  =        25.34377382
  PAW double counting   =        89.87480378      -91.28264206
  entropy T*S    EENTRO =         0.00000000
  eigenvalues    EBANDS =       -88.11120868
  atomic energy  EATOM  =       197.09414118
  ---------------------------------------------------
  free energy    TOTEN  =       -24.03317692 eV

  energy without entropy =      -24.03317692  energy(sigma->0) =      -24.03317692


--------------------------------------------------------------------------------------------------------




----------------------------------------- Iteration    2(   3)  ---------------------------------------


    POTLOK:  cpu time    1.54: real time    1.54
    SETDIJ:  cpu time    0.01: real time    0.01
     EDDAV:  cpu time    0.82: real time    0.82
       DOS:  cpu time    0.00: real time    0.00
    CHARGE:  cpu time    0.23: real time    0.23
    MIXING:  cpu time    0.05: real time    0.05
    --------------------------------------------
      LOOP:  cpu time    2.66: real time    2.75

 eigenvalue-minimisations  :    24
 total energy-change (2. order) : 0.1854262E-03  (-0.2605091E-03)
 number of electron       7.9999982 magnetization 
 augmentation part        0.1865085 magnetization 

 Broyden mixing:
  rms(total) = 0.37427E-02    rms(broyden)= 0.37402E-02
  rms(prec ) = 0.52899E-02
  weight for this iteration     100.00

 eigenvalues of (default mixing * dielectric matrix)
  average eigenvalue GAMMA=   0.8479
  1.6201  0.0757

 Free energy of the ion-electron system (eV)
  ---------------------------------------------------
  alpha Z        PSCENC =         0.47054448
  Ewald energy   TEWEN  =        96.40073439
  -1/2 Hartree   DENC   =      -253.56309203
  -exchange  EXHF       =         0.00000000
  -V(xc)+E(xc)   XCENC  =        25.32889203
  PAW double counting   =        89.08091372      -90.48440749
  entropy T*S    EENTRO =         0.00000000
  eigenvalues    EBANDS =       -88.36071777
  atomic energy  EATOM  =       197.09414118
  ---------------------------------------------------
  free energy    TOTEN  =       -24.03299149 eV

  energy without entropy =      -24.03299149  energy(sigma->0) =      -24.03299149


--------------------------------------------------------------------------------------------------------




----------------------------------------- Iteration    2(   4)  ---------------------------------------


    POTLOK:  cpu time    1.55: real time    1.55
    SETDIJ:  cpu time    0.01: real time    0.01
     EDDAV:  cpu time    0.60: real time    0.60
       DOS:  cpu time    0.00: real time    0.00
    --------------------------------------------
      LOOP:  cpu time    2.17: real time    2.24

 eigenvalue-minimisations  :    16
 total energy-change (2. order) : 0.1487581E-05  (-0.2461533E-06)
 number of electron       7.9999982 magnetization 
 augmentation part        0.1865085 magnetization 

 Free energy of the ion-electron system (eV)
  ---------------------------------------------------
  alpha Z        PSCENC =         0.47054448
  Ewald energy   TEWEN  =        96.40073439
  -1/2 Hartree   DENC   =      -253.56372261
  -exchange  EXHF       =         0.00000000
  -V(xc)+E(xc)   XCENC  =        25.32892114
  PAW double counting   =        89.08129282      -90.48479735
  entropy T*S    EENTRO =         0.00000000
  eigenvalues    EBANDS =       -88.36010406
  atomic energy  EATOM  =       197.09414118
  ---------------------------------------------------
  free energy    TOTEN  =       -24.03299000 eV

  energy without entropy =      -24.03299000  energy(sigma->0) =      -24.03299000


--------------------------------------------------------------------------------------------------------




 average (electrostatic) potential at core
  the test charge radii are     0.5201  0.6991
  (the norm of the test charge is              1.0000)
       1 -41.3642       2 -41.3642       3 -41.3642       4 -41.3642       5 -57.8441
 
 
 
 E-fermi :  -8.1640     XC(G=0):  -1.1766     alpha+bet : -0.4118


 k-point   1 :       0.0000    0.0000    0.0000
  band No.  band energies     occupation 
      1     -16.7321      2.00000
      2      -9.1493      2.00000
      3      -9.1493      2.00000
      4      -9.1493      2.00000
      5      -0.5937      0.00000
      6       1.7528      0.00000
      7       1.7528      0.00000
      8       1.7528      0.00000


--------------------------------------------------------------------------------------------------------


 soft charge-density along one line, spin component           1
         0         1         2         3         4         5         6         7         8         9
 total charge-density along one line
 
 pseudopotential strength for first ion, spin component:           1
 -2.339  -0.010   0.001   0.001   0.001
 -0.010   0.049   0.001   0.001   0.001
  0.001   0.001  -0.338   0.002   0.002
  0.001   0.001   0.002  -0.338   0.002
  0.001   0.001   0.002   0.002  -0.338
 total augmentation occupancy for first ion, spin component:           1
  1.732  -0.495  -0.172  -0.172  -0.172
 -0.495   0.191   0.056   0.056   0.056
 -0.172   0.056   0.024   0.015   0.015
 -0.172   0.056   0.015   0.024   0.015
 -0.172   0.056   0.015   0.015   0.024


------------------------ aborting loop because EDIFF is reached ----------------------------------------


    CHARGE:  cpu time    0.23: real time    0.23
    FORLOC:  cpu time    0.16: real time    0.16
    FORNL :  cpu time    0.08: real time    0.08
    STRESS:  cpu time    0.41: real time    0.41
    FORHAR:  cpu time    0.55: real time    0.55
    MIXING:  cpu time    0.05: real time    0.05

  FORCE on cell =-STRESS in cart. coord.  units (eV):
  Direction    XX          YY          ZZ          XY          YZ          ZX
  --------------------------------------------------------------------------------------
  Alpha Z     0.47054     0.47054     0.47054
  Ewald      32.13355    32.13355    32.13355     0.00000     0.00000     0.00000
  Hartree    84.56650    84.56650    84.56650     0.00000     0.00000     0.00000
  E(xc)     -26.93024   -26.93024   -26.93024     0.00000     0.00000     0.00000
  Local    -175.85923  -175.85923  -175.85923     0.00000     0.00000     0.00000
  n-local   -15.73739   -15.73739   -15.73739     0.00000     0.00000     0.00000
  augment     0.12813     0.12813     0.12813     0.00000     0.00000     0.00000
  Kinetic   101.02594   101.02594   101.02594     0.00000     0.00000     0.00000
  Fock        0.00000     0.00000     0.00000     0.00000     0.00000     0.00000
  -------------------------------------------------------------------------------------
  Total      -0.20220    -0.20220    -0.20220     0.00000     0.00000     0.00000
  in kB      -0.63273    -0.63273    -0.63273     0.00000     0.00000     0.00000
  external pressure =       -0.63 kB  Pullay stress =        0.00 kB


 VOLUME and BASIS-vectors are now :
 -----------------------------------------------------------------------------
  energy-cutoff  :      500.00
  volume of cell :      512.00
      direct lattice vectors                 reciprocal lattice vectors
     8.000000000  0.000000000  0.000000000     0.125000000  0.000000000  0.000000000
     0.000000000  8.000000000  0.000000000     0.000000000  0.125000000  0.000000000
     0.000000000  0.000000000  8.000000000     0.000000000  0.000000000  0.125000000

  length of vectors
     8.000000000  8.000000000  8.000000000     0.125000000  0.125000000  0.125000000


 FORCES acting on ions
    electron-ion (+dipol)            ewald-force                    non-local-force                 convergence-correction
 -----------------------------------------------------------------------------------------------
   -.302E+02 -.302E+02 -.302E+02   0.332E+02 0.332E+02 0.332E+02   -.316E+01 -.316E+01 -.316E+01   0.981E-02 0.981E-02 0.981E-02
   0.302E+02 0.302E+02 -.302E+02   -.332E+02 -.332E+02 0.332E+02   0.316E+01 0.316E+01 -.316E+01   -.981E-02 -.981E-02 0.981E-02
   -.302E+02 0.302E+02 0.302E+02   0.332E+02 -.332E+02 -.332E+02   -.316E+01 0.316E+01 0.316E+01   0.981E-02 -.981E-02 -.981E-02
   0.302E+02 -.302E+02 0.302E+02   -.332E+02 0.332E+02 -.332E+02   0.316E+01 -.316E+01 0.316E+01   -.981E-02 0.981E-02 -.981E-02
   0.186E-14 0.111E-14 -.182E-13   -.140E-14 0.144E-14 0.922E-14   0.000E+00 0.000E+00 0.000E+00   0.952E-14 -.243E-12 -.383E-12
 -----------------------------------------------------------------------------------------------
   0.131E-07 0.131E-07 0.788E-09   -.140E-14 0.144E-14 -.499E-14   0.444E-15 0.444E-15 -.444E-15   0.179E-13 -.380E-12 -.622E-12
 
 
 POSITION                                       TOTAL-FORCE (eV/Angst)
 -----------------------------------------------------------------------------------
      0.63499      0.63499      0.63499        -0.078238     -0.078238     -0.078238
      7.36501      7.36501      0.63499         0.078238      0.078238     -0.078238
      0.63499      7.36501      7.36501        -0.078238      0.078238      0.078238
      7.36501      0.63499      7.36501         0.078238     -0.078238      0.078238
      0.00000      0.00000      0.00000         0.000000      0.000000      0.000000
 -----------------------------------------------------------------------------------
    total drift:                                0.000000      0.000000      0.000000


--------------------------------------------------------------------------------------------------------



  FREE ENERGIE OF THE ION-ELECTRON SYSTEM (eV)
  ---------------------------------------------------
  free  energy   TOTEN  =       -24.032990 eV

  energy  without entropy=      -24.032990  energy(sigma->0) =      -24.032990
 
 d Force = 0.1527646E-02[-0.551E-02, 0.856E-02]  d Energy = 0.1781526E-02-0.254E-03
 d Force = 0.2362275E+01[ 0.234E+01, 0.238E+01]  d Ewald  = 0.2362172E+01 0.104E-03


--------------------------------------------------------------------------------------------------------


    POTLOK:  cpu time    1.55: real time    1.55


--------------------------------------------------------------------------------------------------------


 Steepest descent step on ions:
 trial-energy change:   -0.001782  1 .order   -0.001528   -0.008564    0.005509
  (g-gl).g = 0.856E-02      g.g   = 0.856E-02  gl.gl    = 0.000E+00
 g(Force)  = 0.856E-02   g(Stress)= 0.000E+00 ortho     = 0.000E+00
 gamma     =   0.00000
 trial     =   1.00000
 opt step  =   0.60855  (harmonic =   0.60855) maximal distance =0.00357080
 next E    =   -24.033814   (d E  =  -0.00261)


--------------------------------------------------------------------------------------------------------


    WAVPRE:  cpu time    0.36: real time    0.36
    FEWALD:  cpu time    0.00: real time    0.00
    ORTHCH:  cpu time    0.02: real time    0.02
     LOOP+:  cpu time   13.50: real time   13.81


----------------------------------------- Iteration    3(   1)  ---------------------------------------


    POTLOK:  cpu time    1.56: real time    1.56
    SETDIJ:  cpu time    0.01: real time    0.01
     EDDAV:  cpu time    0.61: real time    0.61
       DOS:  cpu time    0.00: real time    0.00
    CHARGE:  cpu time    0.24: real time    0.24
    MIXING:  cpu time    0.05: real time    0.05
    --------------------------------------------
      LOOP:  cpu time    2.47: real time    2.47

 eigenvalue-minimisations  :    16
 total energy-change (2. order) :-0.1560385E-02  (-0.3280414E-02)
 number of electron       7.9999979 magnetization 
 augmentation part        0.1879023 magnetization 

 Broyden mixing:
  rms(total) = 0.12457E-01    rms(broyden)= 0.12454E-01
  rms(prec ) = 0.19814E-01
  weight for this iteration     100.00

 Free energy of the ion-electron system (eV)
  ---------------------------------------------------
  alpha Z        PSCENC =         0.47054448
  Ewald energy   TEWEN  =        97.32005585
  -1/2 Hartree   DENC   =      -254.05459627
  -exchange  EXHF       =         0.00000000
  -V(xc)+E(xc)   XCENC  =        25.35384621
  PAW double counting   =        89.00679047      -90.41058024
  entropy T*S    EENTRO =         0.00000000
  eigenvalues    EBANDS =       -88.81475355
  atomic energy  EATOM  =       197.09414118
  ---------------------------------------------------
  free energy    TOTEN  =       -24.03455188 eV

  energy without entropy =      -24.03455188  energy(sigma->0) =      -24.03455188


--------------------------------------------------------------------------------------------------------




----------------------------------------- Iteration    3(   2)  ---------------------------------------


    POTLOK:  cpu time    1.59: real time    1.59
    SETDIJ:  cpu time    0.01: real time    0.01
     EDDAV:  cpu time    0.61: real time    0.61
       DOS:  cpu time    0.00: real time    0.00
    CHARGE:  cpu time    0.23: real time    0.24
    MIXING:  cpu time    0.05: real time    0.05
    --------------------------------------------
      LOOP:  cpu time    2.50: real time    2.51

 eigenvalue-minimisations  :    16
 total energy-change (2. order) : 0.5816088E-03  (-0.1661335E-03)
 number of electron       7.9999979 magnetization 
 augmentation part        0.1877254 magnetization 

 Broyden mixing:
  rms(total) = 0.40477E-02    rms(broyden)= 0.40476E-02
  rms(prec ) = 0.63058E-02
  weight for this iteration     100.00

 eigenvalues of (default mixing * dielectric matrix)
  average eigenvalue GAMMA=   1.4783
  1.4783

 Free energy of the ion-electron system (eV)
  ---------------------------------------------------
  alpha Z        PSCENC =         0.47054448
  Ewald energy   TEWEN  =        97.32005585
  -1/2 Hartree   DENC   =      -254.30383702
  -exchange  EXHF       =         0.00000000
  -V(xc)+E(xc)   XCENC  =        25.36705419
  PAW double counting   =        89.46891357      -90.87590035
  entropy T*S    EENTRO =         0.00000000
  eigenvalues    EBANDS =       -88.57494216
  atomic energy  EATOM  =       197.09414118
  ---------------------------------------------------
  free energy    TOTEN  =       -24.03397027 eV

  energy without entropy =      -24.03397027  energy(sigma->0) =      -24.03397027


--------------------------------------------------------------------------------------------------------




----------------------------------------- Iteration    3(   3)  ---------------------------------------


    POTLOK:  cpu time    1.61: real time    1.62
    SETDIJ:  cpu time    0.01: real time    0.01
     EDDAV:  cpu time    0.61: real time    0.61
       DOS:  cpu time    0.00: real time    0.00
    --------------------------------------------
      LOOP:  cpu time    2.24: real time    2.30

 eigenvalue-minimisations  :    16
 total energy-change (2. order) : 0.2430427E-04  (-0.6706967E-04)
 number of electron       7.9999979 magnetization 
 augmentation part        0.1877254 magnetization 

 Free energy of the ion-electron system (eV)
  ---------------------------------------------------
  alpha Z        PSCENC =         0.47054448
  Ewald energy   TEWEN  =        97.32005585
  -1/2 Hartree   DENC   =      -254.41588982
  -exchange  EXHF       =         0.00000000
  -V(xc)+E(xc)   XCENC  =        25.37294959
  PAW double counting   =        89.71044572      -91.11917041
  entropy T*S    EENTRO =         0.00000000
  eigenvalues    EBANDS =       -88.46702255
  atomic energy  EATOM  =       197.09414118
  ---------------------------------------------------
  free energy    TOTEN  =       -24.03394596 eV

  energy without entropy =      -24.03394596  energy(sigma->0) =      -24.03394596


--------------------------------------------------------------------------------------------------------




 average (electrostatic) potential at core
  the test charge radii are     0.5201  0.6991
  (the norm of the test charge is              1.0000)
       1 -41.3947       2 -41.3947       3 -41.3947       4 -41.3947       5 -57.7869
 
 
 
 E-fermi :  -8.1921     XC(G=0):  -1.2273     alpha+bet : -0.4118


 k-point   1 :       0.0000    0.0000    0.0000
  band No.  band energies     occupation 
      1     -16.7545      2.00000
      2      -9.1597      2.00000
      3      -9.1597      2.00000
      4      -9.1597      2.00000
      5      -0.6316      0.00000
      6       1.7185      0.00000
      7       1.7185      0.00000
      8       1.7185      0.00000


--------------------------------------------------------------------------------------------------------


 soft charge-density along one line, spin component           1
         0         1         2         3         4         5         6         7         8         9
 total charge-density along one line
 
 pseudopotential strength for first ion, spin component:           1
 -2.339  -0.011   0.001   0.001   0.001
 -0.011   0.049   0.001   0.001   0.001
  0.001   0.001  -0.338   0.002   0.002
  0.001   0.001   0.002  -0.338   0.002
  0.001   0.001   0.002   0.002  -0.338
 total augmentation occupancy for first ion, spin component:           1
  1.741  -0.496  -0.174  -0.174  -0.174
 -0.496   0.192   0.056   0.056   0.056
 -0.174   0.056   0.024   0.015   0.015
 -0.174   0.056   0.015   0.024   0.015
 -0.174   0.056   0.015   0.015   0.024


------------------------ aborting loop because EDIFF is reached ----------------------------------------


    CHARGE:  cpu time    0.23: real time    0.24
    FORLOC:  cpu time    0.16: real time    0.16
    FORNL :  cpu time    0.07: real time    0.08
    STRESS:  cpu time    0.41: real time    0.41
    FORHAR:  cpu time    0.56: real time    0.56
    MIXING:  cpu time    0.05: real time    0.05

  FORCE on cell =-STRESS in cart. coord.  units (eV):
  Direction    XX          YY          ZZ          XY          YZ          ZX
  --------------------------------------------------------------------------------------
  Alpha Z     0.47054     0.47054     0.47054
  Ewald      32.43999    32.43999    32.43999     0.00000     0.00000     0.00000
  Hartree    84.78254    84.78254    84.78254     0.00000     0.00000     0.00000
  E(xc)     -26.97597   -26.97597   -26.97597     0.00000     0.00000     0.00000
  Local    -176.33860  -176.33860  -176.33860     0.00000     0.00000     0.00000
  n-local   -15.82554   -15.82554   -15.82554     0.00000     0.00000     0.00000
  augment     0.12698     0.12698     0.12698     0.00000     0.00000     0.00000
  Kinetic   101.24314   101.24314   101.24314     0.00000     0.00000     0.00000
  Fock        0.00000     0.00000     0.00000     0.00000     0.00000     0.00000
  -------------------------------------------------------------------------------------
  Total      -0.07691    -0.07691    -0.07691     0.00000     0.00000     0.00000
  in kB      -0.24068    -0.24068    -0.24068     0.00000     0.00000     0.00000
  external pressure =       -0.24 kB  Pullay stress =        0.00 kB


 VOLUME and BASIS-vectors are now :
 -----------------------------------------------------------------------------
  energy-cutoff  :      500.00
  volume of cell :      512.00
      direct lattice vectors                 reciprocal lattice vectors
     8.000000000  0.000000000  0.000000000     0.125000000  0.000000000  0.000000000
     0.000000000  8.000000000  0.000000000     0.000000000  0.125000000  0.000000000
     0.000000000  0.000000000  8.000000000     0.000000000  0.000000000  0.125000000

  length of vectors
     8.000000000  8.000000000  8.000000000     0.125000000  0.125000000  0.125000000


 FORCES acting on ions
    electron-ion (+dipol)            ewald-force                    non-local-force                 convergence-correction
 -----------------------------------------------------------------------------------------------
   -.303E+02 -.303E+02 -.303E+02   0.335E+02 0.335E+02 0.335E+02   -.319E+01 -.319E+01 -.319E+01   -.473E-02 -.473E-02 -.473E-02
   0.303E+02 0.303E+02 -.303E+02   -.335E+02 -.335E+02 0.335E+02   0.319E+01 0.319E+01 -.319E+01   0.473E-02 0.473E-02 -.473E-02
   -.303E+02 0.303E+02 0.303E+02   0.335E+02 -.335E+02 -.335E+02   -.319E+01 0.319E+01 0.319E+01   -.473E-02 0.473E-02 0.473E-02
   0.303E+02 -.303E+02 0.303E+02   -.335E+02 0.335E+02 -.335E+02   0.319E+01 -.319E+01 0.319E+01   0.473E-02 -.473E-02 0.473E-02
   0.480E-14 0.143E-14 -.163E-13   -.297E-14 -.112E-13 0.563E-15   0.662E-23 -.827E-24 -.414E-24   -.148E-12 -.662E-13 0.320E-13
 -----------------------------------------------------------------------------------------------
   0.126E-07 0.126E-07 0.861E-09   0.414E-14 0.102E-13 0.767E-14   0.444E-15 -.888E-15 -.414E-24   -.215E-12 -.116E-12 0.357E-13
 
 
 POSITION                                       TOTAL-FORCE (eV/Angst)
 -----------------------------------------------------------------------------------
      0.63269      0.63269      0.63269         0.007385      0.007385      0.007385
      7.36731      7.36731      0.63269        -0.007385     -0.007385      0.007385
      0.63269      7.36731      7.36731         0.007385     -0.007385     -0.007385
      7.36731      0.63269      7.36731        -0.007385      0.007385     -0.007385
      0.00000      0.00000      0.00000         0.000000      0.000000      0.000000
 -----------------------------------------------------------------------------------
    total drift:                                0.000000      0.000000      0.000000


--------------------------------------------------------------------------------------------------------



  FREE ENERGIE OF THE ION-ELECTRON SYSTEM (eV)
  ---------------------------------------------------
  free  energy   TOTEN  =       -24.033946 eV

  energy  without entropy=      -24.033946  energy(sigma->0) =      -24.033946
 
 d Force = 0.9764458E-03[-0.204E-03, 0.216E-02]  d Energy = 0.9559591E-03 0.205E-04
 d Force =-0.9193276E+00[-0.923E+00,-0.916E+00]  d Ewald  =-0.9193215E+00-0.613E-05


--------------------------------------------------------------------------------------------------------


    POTLOK:  cpu time    1.63: real time    1.63


--------------------------------------------------------------------------------------------------------




--------------------------------------------------------------------------------------------------------


  
 reached required accuracy - stopping structural energy minimisation
 writing wavefunctions
     LOOP+:  cpu time   10.35: real time   10.54
    4ORBIT:  cpu time    0.00: real time    0.00

 total amount of memory used by VASP on root node   119877. kBytes
========================================================================

   base      :      30000. kBytes
   nonl-proj :       2711. kBytes
   fftplans  :      30736. kBytes
   grid      :      54743. kBytes
   one-center:         15. kBytes
   wavefun   :       1672. kBytes
 
  
  
 General timing and accounting informations for this job:
 ========================================================
  
                  Total CPU time used (sec):       57.148
                            User time (sec):       56.341
                          System time (sec):        0.807
                         Elapsed time (sec):       60.486
  
                   Maximum memory used (kb):           0.
                   Average memory used (kb):           0.
  
                          Minor page faults:       212159
                          Major page faults:            0
                 Voluntary context switches:         2701
