unknown system                          
   1.00000000000000     
     8.000000    0.000000    0.000000
     0.000000    8.000000    0.000000
     0.000000    0.000000    8.000000
   H    C 
     2     2
Direct
  0.000000  0.000000  0.790751
  0.000000  0.000000  0.209249
  0.000000  0.000000  0.076010
  0.000000  0.000000  0.923990
 
   64   64   64
  1456.4      1400.3      1240.3      1002.9      735.28      495.15      318.55      205.93      136.89      92.276    
  61.795      40.183      24.421      13.969      8.8344      6.8324      4.9389      2.6289      1.3749      1.3474    
  1.0955     0.23768     -.69232E-01 0.45153     0.59519     -.61306E-01 -.39249     0.12967     0.45628     -.47274E-01
 -.42877     0.24176E-01 0.43935     0.24176E-01 -.42877     -.47274E-01 0.45628     0.12967     -.39249     -.61306E-01
 0.59519     0.45153     -.69232E-01 0.23768      1.0955      1.3474      1.3749      2.6289      4.9389      6.8324    
  8.8344      13.969      24.421      40.183      61.795      92.276      136.89      205.93      318.55      495.15    
  735.28      1002.9      1240.3      1400.3      1400.3      1345.4      1189.6      959.82      703.29      474.73    
  307.08      199.88      133.69      90.448      60.571      39.266      23.832      13.710      8.7252      6.7158    
  4.8471      2.6264      1.3942      1.3072      1.0469     0.25676     -.30860E-01 0.42776     0.54717     -.50510E-01
 -.35037     0.12042     0.41409     -.40965E-01 -.38552     0.22506E-01 0.39666     0.22506E-01 -.38552     -.40965E-01
 0.41409     0.12042     -.35037     -.50510E-01 0.54717     0.42776     -.30860E-01 0.25676      1.0469      1.3072    
  1.3942      2.6264      4.8471      6.7158      8.7252      13.710      23.832      39.266      60.571      90.448    
  133.69      199.88      307.08      474.73      703.29      959.82      1189.6      1345.4      1240.3      1189.6    
  1046.9      840.50      615.90      419.27      275.80      183.19      124.64      85.138      56.976      36.622    
  22.168      12.977      8.4120      6.3971      4.5982      2.6086      1.4346      1.2001     0.92279     0.30600    
 0.66842E-01 0.36772     0.42601     -.23014E-01 -.24432     0.96324E-01 0.30708     -.25224E-01 -.27657     0.17932E-01
 0.28851     0.17932E-01 -.27657     -.25224E-01 0.30708     0.96324E-01 -.24432     -.23014E-01 0.42601     0.36772    
 0.66842E-01 0.30600     0.92279      1.2001      1.4346      2.6086      4.5982      6.3971      8.4120      12.977    
  22.168      36.622      56.976      85.138      124.64      183.19      275.80      419.27      615.90      840.50    
  1046.9      1189.6      1002.9      959.82      840.50      672.96      495.88      343.70      232.77      159.59    
  111.24      76.874      51.298      32.589      19.722      11.891      7.9322      5.9495      4.2523      2.5475    
  1.4521      1.0576     0.77334     0.36507     0.18132     0.29658     0.28448     0.92718E-02 -.12155     0.66903E-01
 0.18163     -.74690E-02 -.15058     0.11791E-01 0.16198     0.11791E-01 -.15058     -.74690E-02 0.18163     0.66903E-01
 -.12155     0.92718E-02 0.28448     0.29658     0.18132     0.36507     0.77334      1.0576      1.4521      2.5475    
  4.2523      5.9495      7.9322      11.891      19.722      32.589      51.298      76.874      111.24      159.59    
  232.77      343.70      495.88      672.96      840.50      959.82      735.28      703.29      615.90      495.88    
  371.57      265.64      187.39      133.49      95.413      66.499      44.100      27.710      16.894      10.611    
  7.3341      5.4461      3.8622      2.4088      1.4022     0.91101     0.64536     0.41028     0.26810     0.23612    
 0.17121     0.34047E-01 -.26276E-01 0.42929E-01 0.83014E-01 0.54723E-02 -.53628E-01 0.60863E-02 0.62841E-01 0.60863E-02
 -.53628E-01 0.54723E-02 0.83014E-01 0.42929E-01 -.26276E-01 0.34047E-01 0.17121     0.23612     0.26810     0.41028    
 0.64536     0.91101      1.4022      2.4088      3.8622      5.4461      7.3341      10.611      16.894      27.710    
  44.100      66.499      95.413      133.49      187.39      265.64      371.57      495.88      615.90      703.29    
  495.15      474.73      419.27      343.70      265.64      198.29      146.59      108.33      78.857      55.028    
  36.176      22.622      14.075      9.2901      6.6643      4.9239      3.4455      2.1724      1.2681     0.77885    
 0.55771     0.42481     0.30316     0.19429     0.10615     0.44905E-01 0.22827E-01 0.30621E-01 0.31889E-01 0.11237E-01
 -.48409E-02 0.25940E-02 0.11719E-01 0.25940E-02 -.48409E-02 0.11237E-01 0.31889E-01 0.30621E-01 0.22827E-01 0.44905E-01
 0.10615     0.19429     0.30316     0.42481     0.55771     0.77885      1.2681      2.1724      3.4455      4.9239    
  6.6643      9.2901      14.075      22.622      36.176      55.028      78.857      108.33      146.59      198.29    
  265.64      343.70      419.27      474.73      318.55      307.08      275.80      232.77      187.39      146.59    
  112.96      85.608      62.700      43.474      28.376      17.884      11.541      8.0377      5.9561      4.3788    
  2.9934      1.8513      1.0737     0.66773     0.50171     0.40634     0.29083     0.16670     0.79836E-01 0.43397E-01
 0.34495E-01 0.28946E-01 0.20317E-01 0.11990E-01 0.58821E-02 0.17446E-02 0.14211E-03 0.17446E-02 0.58821E-02 0.11990E-01
 0.20317E-01 0.28946E-01 0.34495E-01 0.43397E-01 0.79836E-01 0.16670     0.29083     0.40634     0.50171     0.66773    
  1.0737      1.8513      2.9934      4.3788      5.9561      8.0377      11.541      17.884      28.376      43.474    
  62.700      85.608      112.96      146.59      187.39      232.77      275.80      307.08      205.93      199.88    
  183.19      159.59      133.49      108.33      85.608      65.418      47.649      32.740      21.404      13.850    
  9.4119      6.8977      5.2206      3.7904      2.5031      1.4932     0.86840     0.57885     0.46040     0.36749    
 0.25355     0.14411     0.69826E-01 0.36200E-01 0.30386E-01 0.32482E-01 0.26170E-01 0.11236E-01 0.11385E-02 0.23461E-02
 0.53626E-02 0.23461E-02 0.11385E-02 0.11236E-01 0.26170E-01 0.32482E-01 0.30386E-01 0.36200E-01 0.69826E-01 0.14411    
 0.25355     0.36749     0.46040     0.57885     0.86840      1.4932      2.5031      3.7904      5.2206      6.8977    
  9.4119      13.850      21.404      32.740      47.649      65.418      85.608      108.33      133.49      159.59    
  183.19      199.88      136.89      133.69      124.64      111.24      95.413      78.857      62.700      47.649    
  34.364      23.560      15.702      10.650      7.6811      5.8573      4.4528      3.1546      2.0009      1.1584    
 0.69707     0.51227     0.42511     0.32650     0.21329     0.11955     0.59176E-01 0.30216E-01 0.28107E-01 0.36434E-01
 0.31434E-01 0.10814E-01 -.26237E-02 0.26434E-02 0.92029E-02 0.26434E-02 -.26237E-02 0.10814E-01 0.31434E-01 0.36434E-01
 0.28107E-01 0.30216E-01 0.59176E-01 0.11955     0.21329     0.32650     0.42511     0.51227     0.69707      1.1584    
  2.0009      3.1546      4.4528      5.8573      7.6811      10.650      15.702      23.560      34.364      47.649    
  62.700      78.857      95.413      111.24      124.64      133.69      92.276      90.448      85.138      76.874    
  66.499      55.028      43.474      32.740      23.560      16.421      11.424      8.2458      6.2733      4.8779    
  3.6539      2.5016      1.5346     0.89072     0.57857     0.46594     0.39488     0.29319     0.17941     0.92534E-01
 0.44944E-01 0.29037E-01 0.32704E-01 0.38619E-01 0.30384E-01 0.10582E-01 -.15874E-02 0.18075E-02 0.66442E-02 0.18075E-02
 -.15874E-02 0.10582E-01 0.30384E-01 0.38619E-01 0.32704E-01 0.29037E-01 0.44944E-01 0.92534E-01 0.17941     0.29319    
 0.39488     0.46594     0.57857     0.89072      1.5346      2.5016      3.6539      4.8779      6.2733      8.2458    
  11.424      16.421      23.560      32.740      43.474      55.028      66.499      76.874      85.138      90.448    
  61.795      60.571      56.976      51.298      44.100      36.176      28.376      21.404      15.702      11.424    
  8.4590      6.4846      5.0903      3.9332      2.8552      1.8874      1.1463     0.70072     0.50494     0.43219    
 0.36554     0.26274     0.14973     0.68177E-01 0.33633E-01 0.32070E-01 0.39254E-01 0.38159E-01 0.25636E-01 0.99119E-02
 0.95984E-03 0.41871E-03 0.17015E-02 0.41871E-03 0.95984E-03 0.99119E-02 0.25636E-01 0.38159E-01 0.39254E-01 0.32070E-01
 0.33633E-01 0.68177E-01 0.14973     0.26274     0.36554     0.43219     0.50494     0.70072      1.1463      1.8874    
  2.8552      3.9332      5.0903      6.4846      8.4590      11.424      15.702      21.404      28.376      36.176    
  44.100      51.298      56.976      60.571      40.183      39.266      36.622      32.589      27.710      22.622    
  17.884      13.850      10.650      8.2458      6.4846      5.1529      4.0436      3.0333      2.1174      1.3686    
 0.85416     0.57358     0.45470     0.39707     0.32613     0.22394     0.11971     0.51309E-01 0.29946E-01 0.35820E-01
 0.41406E-01 0.34548E-01 0.20496E-01 0.85844E-02 0.21833E-02 -.39115E-03 -.10684E-02 -.39115E-03 0.21833E-02 0.85844E-02
 0.20496E-01 0.34548E-01 0.41406E-01 0.35820E-01 0.29946E-01 0.51309E-01 0.11971     0.22394     0.32613     0.39707    
 0.45470     0.57358     0.85416      1.3686      2.1174      3.0333      4.0436      5.1529      6.4846      8.2458    
  10.650      13.850      17.884      22.622      27.710      32.589      36.622      39.266      24.421      23.832    
  22.168      19.722      16.894      14.075      11.541      9.4119      7.6811      6.2733      5.0903      4.0436    
  3.0844      2.2209      1.5028     0.97796     0.65326     0.48650     0.40689     0.34678     0.26830     0.17316    
 0.89197E-01 0.41528E-01 0.30837E-01 0.36489E-01 0.37542E-01 0.28332E-01 0.15667E-01 0.65671E-02 0.20232E-02 -.55577E-04
 -.74202E-03 -.55577E-04 0.20232E-02 0.65671E-02 0.15667E-01 0.28332E-01 0.37542E-01 0.36489E-01 0.30837E-01 0.41528E-01
 0.89197E-01 0.17316     0.26830     0.34678     0.40689     0.48650     0.65326     0.97796      1.5028      2.2209    
  3.0844      4.0436      5.0903      6.2733      7.6811      9.4119      11.541      14.075      16.894      19.722    
  22.168      23.832      13.969      13.710      12.977      11.891      10.611      9.2901      8.0377      6.8977    
  5.8573      4.8779      3.9332      3.0333      2.2209      1.5472      1.0454     0.71551     0.52463     0.42027    
 0.34969     0.27807     0.19697     0.11903     0.62371E-01 0.35206E-01 0.30445E-01 0.32696E-01 0.30168E-01 0.21110E-01
 0.10743E-01 0.39576E-02 0.14403E-02 0.11598E-02 0.12663E-02 0.11598E-02 0.14403E-02 0.39576E-02 0.10743E-01 0.21110E-01
 0.30168E-01 0.32696E-01 0.30445E-01 0.35206E-01 0.62371E-01 0.11903     0.19697     0.27807     0.34969     0.42027    
 0.52463     0.71551      1.0454      1.5472      2.2209      3.0333      3.9332      4.8779      5.8573      6.8977    
  8.0377      9.2901      10.611      11.891      12.977      13.710      8.8344      8.7252      8.4120      7.9322    
  7.3341      6.6643      5.9561      5.2206      4.4528      3.6539      2.8552      2.1174      1.5028      1.0454    
 0.74027     0.55416     0.44187     0.36069     0.28287     0.20216     0.12861     0.74555E-01 0.43801E-01 0.31148E-01
 0.27894E-01 0.26336E-01 0.21865E-01 0.14059E-01 0.60726E-02 0.14665E-02 0.10341E-02 0.26419E-02 0.35619E-02 0.26419E-02
 0.10341E-02 0.14665E-02 0.60726E-02 0.14059E-01 0.21865E-01 0.26336E-01 0.27894E-01 0.31148E-01 0.43801E-01 0.74555E-01
 0.12861     0.20216     0.28287     0.36069     0.44187     0.55416     0.74027      1.0454      1.5028      2.1174    
  2.8552      3.6539      4.4528      5.2206      5.9561      6.6643      7.3341      7.9322      8.4120      8.7252    
  6.8324      6.7158      6.3971      5.9495      5.4461      4.9239      4.3788      3.7904      3.1546      2.5016    
  1.8874      1.3686     0.97796     0.71551     0.55416     0.45387     0.37652     0.29803     0.21411     0.13616    
 0.78772E-01 0.47352E-01 0.35302E-01 0.31069E-01 0.26742E-01 0.20543E-01 0.13706E-01 0.73933E-02 0.25072E-02 0.27458E-03
 0.12366E-02 0.38350E-02 0.51918E-02 0.38350E-02 0.12366E-02 0.27458E-03 0.25072E-02 0.73933E-02 0.13706E-01 0.20543E-01
 0.26742E-01 0.31069E-01 0.35302E-01 0.47352E-01 0.78772E-01 0.13616     0.21411     0.29803     0.37652     0.45387    
 0.55416     0.71551     0.97796      1.3686      1.8874      2.5016      3.1546      3.7904      4.3788      4.9239    
  5.4461      5.9495      6.3971      6.7158      4.9389      4.8471      4.5982      4.2523      3.8622      3.4455    
  2.9934      2.5031      2.0009      1.5346      1.1463     0.85416     0.65326     0.52463     0.44187     0.37652    
 0.30747     0.22942     0.15205     0.89893E-01 0.51907E-01 0.36828E-01 0.34961E-01 0.34286E-01 0.27773E-01 0.16703E-01
 0.68412E-02 0.17171E-02 0.43948E-03 0.89330E-03 0.23351E-02 0.42746E-02 0.52395E-02 0.42746E-02 0.23351E-02 0.89330E-03
 0.43948E-03 0.17171E-02 0.68412E-02 0.16703E-01 0.27773E-01 0.34286E-01 0.34961E-01 0.36828E-01 0.51907E-01 0.89893E-01
 0.15205     0.22942     0.30747     0.37652     0.44187     0.52463     0.65326     0.85416      1.1463      1.5346    
  2.0009      2.5031      2.9934      3.4455      3.8622      4.2523      4.5982      4.8471      2.6289      2.6264    
  2.6086      2.5475      2.4088      2.1724      1.8513      1.4932      1.1584     0.89072     0.70072     0.57358    
 0.48650     0.42027     0.36069     0.29803     0.22942     0.16058     0.10198     0.61914E-01 0.41929E-01 0.36865E-01
 0.37688E-01 0.35661E-01 0.26790E-01 0.13772E-01 0.29787E-02 -.13577E-02 -.19930E-03 0.24796E-02 0.38031E-02 0.36634E-02
 0.33776E-02 0.36634E-02 0.38031E-02 0.24796E-02 -.19930E-03 -.13577E-02 0.29787E-02 0.13772E-01 0.26790E-01 0.35661E-01
 0.37688E-01 0.36865E-01 0.41929E-01 0.61914E-01 0.10198     0.16058     0.22942     0.29803     0.36069     0.42027    
 0.48650     0.57358     0.70072     0.89072      1.1584      1.4932      1.8513      2.1724      2.4088      2.5475    
  2.6086      2.6264      1.3749      1.3942      1.4346      1.4521      1.4022      1.2681      1.0737     0.86840    
 0.69707     0.57857     0.50494     0.45470     0.40689     0.34969     0.28287     0.21411     0.15205     0.10198    
 0.66449E-01 0.46399E-01 0.39522E-01 0.39091E-01 0.37410E-01 0.30869E-01 0.20789E-01 0.10345E-01 0.23680E-02 -.98561E-03
 0.49626E-03 0.36731E-02 0.43864E-02 0.21719E-02 0.64166E-03 0.21719E-02 0.43864E-02 0.36731E-02 0.49626E-03 -.98561E-03
 0.23680E-02 0.10345E-01 0.20789E-01 0.30869E-01 0.37410E-01 0.39091E-01 0.39522E-01 0.46399E-01 0.66449E-01 0.10198    
 0.15205     0.21411     0.28287     0.34969     0.40689     0.45470     0.50494     0.57857     0.69707     0.86840    
  1.0737      1.2681      1.4022      1.4521      1.4346      1.3942      1.3474      1.3072      1.2001      1.0576    
 0.91101     0.77885     0.66773     0.57885     0.51227     0.46594     0.43219     0.39707     0.34678     0.27807    
 0.20216     0.13616     0.89893E-01 0.61914E-01 0.46399E-01 0.39464E-01 0.37896E-01 0.36451E-01 0.30712E-01 0.21371E-01
 0.12563E-01 0.66117E-02 0.29812E-02 0.13567E-02 0.21603E-02 0.38682E-02 0.34088E-02 0.51419E-03 -.12441E-02 0.51419E-03
 0.34088E-02 0.38682E-02 0.21603E-02 0.13567E-02 0.29812E-02 0.66117E-02 0.12563E-01 0.21371E-01 0.30712E-01 0.36451E-01
 0.37896E-01 0.39464E-01 0.46399E-01 0.61914E-01 0.89893E-01 0.13616     0.20216     0.27807     0.34678     0.39707    
 0.43219     0.46594     0.51227     0.57885     0.66773     0.77885     0.91101      1.0576      1.2001      1.3072    
  1.0955      1.0469     0.92279     0.77334     0.64536     0.55771     0.50171     0.46040     0.42511     0.39488    
 0.36554     0.32613     0.26830     0.19697     0.12861     0.78772E-01 0.51907E-01 0.41929E-01 0.39522E-01 0.37896E-01
 0.33957E-01 0.27315E-01 0.19309E-01 0.11967E-01 0.67364E-02 0.38943E-02 0.29604E-02 0.32183E-02 0.37110E-02 0.33377E-02
 0.16368E-02 -.52242E-03 -.15167E-02 -.52242E-03 0.16368E-02 0.33377E-02 0.37110E-02 0.32183E-02 0.29604E-02 0.38943E-02
 0.67364E-02 0.11967E-01 0.19309E-01 0.27315E-01 0.33957E-01 0.37896E-01 0.39522E-01 0.41929E-01 0.51907E-01 0.78772E-01
 0.12861     0.19697     0.26830     0.32613     0.36554     0.39488     0.42511     0.46040     0.50171     0.55771    
 0.64536     0.77334     0.92279      1.0469     0.23768     0.25676     0.30600     0.36507     0.41028     0.42481    
 0.40634     0.36749     0.32650     0.29319     0.26274     0.22394     0.17316     0.11903     0.74555E-01 0.47352E-01
 0.36828E-01 0.36865E-01 0.39091E-01 0.36451E-01 0.27315E-01 0.16158E-01 0.84727E-02 0.53164E-02 0.40312E-02 0.29429E-02
 0.27475E-02 0.36213E-02 0.38868E-02 0.24474E-02 0.43389E-03 -.67582E-03 -.90347E-03 -.67582E-03 0.43389E-03 0.24474E-02
 0.38868E-02 0.36213E-02 0.27475E-02 0.29429E-02 0.40312E-02 0.53164E-02 0.84727E-02 0.16158E-01 0.27315E-01 0.36451E-01
 0.39091E-01 0.36865E-01 0.36828E-01 0.47352E-01 0.74555E-01 0.11903     0.17316     0.22394     0.26274     0.29319    
 0.32650     0.36749     0.40634     0.42481     0.41028     0.36507     0.30600     0.25676     -.69232E-01 -.30860E-01
 0.66842E-01 0.18132     0.26810     0.30316     0.29083     0.25355     0.21329     0.17941     0.14973     0.11971    
 0.89197E-01 0.62371E-01 0.43801E-01 0.35302E-01 0.34961E-01 0.37688E-01 0.37410E-01 0.30712E-01 0.19309E-01 0.84727E-02
 0.24245E-02 0.13025E-02 0.23886E-02 0.33278E-02 0.35305E-02 0.32219E-02 0.24579E-02 0.13277E-02 0.27609E-03 -.30747E-03
 -.46035E-03 -.30747E-03 0.27609E-03 0.13277E-02 0.24579E-02 0.32219E-02 0.35305E-02 0.33278E-02 0.23886E-02 0.13025E-02
 0.24245E-02 0.84727E-02 0.19309E-01 0.30712E-01 0.37410E-01 0.37688E-01 0.34961E-01 0.35302E-01 0.43801E-01 0.62371E-01
 0.89197E-01 0.11971     0.14973     0.17941     0.21329     0.25355     0.29083     0.30316     0.26810     0.18132    
 0.66842E-01 -.30860E-01 0.45153     0.42776     0.36772     0.29658     0.23612     0.19429     0.16670     0.14411    
 0.11955     0.92534E-01 0.68177E-01 0.51309E-01 0.41528E-01 0.35206E-01 0.31148E-01 0.31069E-01 0.34286E-01 0.35661E-01
 0.30869E-01 0.21371E-01 0.11967E-01 0.53164E-02 0.13025E-02 -.46659E-04 0.15242E-02 0.41330E-02 0.46565E-02 0.25918E-02
 0.53444E-03 0.21659E-03 0.48410E-03 0.22859E-04 -.42401E-03 0.22859E-04 0.48410E-03 0.21659E-03 0.53444E-03 0.25918E-02
 0.46565E-02 0.41330E-02 0.15242E-02 -.46659E-04 0.13025E-02 0.53164E-02 0.11967E-01 0.21371E-01 0.30869E-01 0.35661E-01
 0.34286E-01 0.31069E-01 0.31148E-01 0.35206E-01 0.41528E-01 0.51309E-01 0.68177E-01 0.92534E-01 0.11955     0.14411    
 0.16670     0.19429     0.23612     0.29658     0.36772     0.42776     0.59519     0.54717     0.42601     0.28448    
 0.17121     0.10615     0.79836E-01 0.69826E-01 0.59176E-01 0.44944E-01 0.33633E-01 0.29946E-01 0.30837E-01 0.30445E-01
 0.27894E-01 0.26742E-01 0.27773E-01 0.26790E-01 0.20789E-01 0.12563E-01 0.67364E-02 0.40312E-02 0.23886E-02 0.15242E-02
 0.26223E-02 0.45497E-02 0.43286E-02 0.16248E-02 -.57368E-03 -.48120E-03 0.27777E-03 0.12245E-04 -.42469E-03 0.12245E-04
 0.27777E-03 -.48120E-03 -.57368E-03 0.16248E-02 0.43286E-02 0.45497E-02 0.26223E-02 0.15242E-02 0.23886E-02 0.40312E-02
 0.67364E-02 0.12563E-01 0.20789E-01 0.26790E-01 0.27773E-01 0.26742E-01 0.27894E-01 0.30445E-01 0.30837E-01 0.29946E-01
 0.33633E-01 0.44944E-01 0.59176E-01 0.69826E-01 0.79836E-01 0.10615     0.17121     0.28448     0.42601     0.54717    
 -.61306E-01 -.50510E-01 -.23014E-01 0.92718E-02 0.34047E-01 0.44905E-01 0.43397E-01 0.36200E-01 0.30216E-01 0.29037E-01
 0.32070E-01 0.35820E-01 0.36489E-01 0.32696E-01 0.26336E-01 0.20543E-01 0.16703E-01 0.13772E-01 0.10345E-01 0.66117E-02
 0.38943E-02 0.29429E-02 0.33278E-02 0.41330E-02 0.45497E-02 0.39861E-02 0.23733E-02 0.48799E-03 -.60828E-03 -.65801E-03
 -.33865E-03 -.24521E-03 -.28320E-03 -.24521E-03 -.33865E-03 -.65801E-03 -.60828E-03 0.48799E-03 0.23733E-02 0.39861E-02
 0.45497E-02 0.41330E-02 0.33278E-02 0.29429E-02 0.38943E-02 0.66117E-02 0.10345E-01 0.13772E-01 0.16703E-01 0.20543E-01
 0.26336E-01 0.32696E-01 0.36489E-01 0.35820E-01 0.32070E-01 0.29037E-01 0.30216E-01 0.36200E-01 0.43397E-01 0.44905E-01
 0.34047E-01 0.92718E-02 -.23014E-01 -.50510E-01 -.39249     -.35037     -.24432     -.12155     -.26276E-01 0.22827E-01
 0.34495E-01 0.30386E-01 0.28107E-01 0.32704E-01 0.39254E-01 0.41406E-01 0.37542E-01 0.30168E-01 0.21865E-01 0.13706E-01
 0.68412E-02 0.29787E-02 0.23680E-02 0.29812E-02 0.29604E-02 0.27475E-02 0.35305E-02 0.46565E-02 0.43286E-02 0.23733E-02
 0.50684E-03 -.17151E-03 -.31054E-03 -.64678E-03 -.80288E-03 -.41388E-03 -.10330E-03 -.41388E-03 -.80288E-03 -.64678E-03
 -.31054E-03 -.17151E-03 0.50684E-03 0.23733E-02 0.43286E-02 0.46565E-02 0.35305E-02 0.27475E-02 0.29604E-02 0.29812E-02
 0.23680E-02 0.29787E-02 0.68412E-02 0.13706E-01 0.21865E-01 0.30168E-01 0.37542E-01 0.41406E-01 0.39254E-01 0.32704E-01
 0.28107E-01 0.30386E-01 0.34495E-01 0.22827E-01 -.26276E-01 -.12155     -.24432     -.35037     0.12967     0.12042    
 0.96324E-01 0.66903E-01 0.42929E-01 0.30621E-01 0.28946E-01 0.32482E-01 0.36434E-01 0.38619E-01 0.38159E-01 0.34548E-01
 0.28332E-01 0.21110E-01 0.14059E-01 0.73933E-02 0.17171E-02 -.13577E-02 -.98561E-03 0.13567E-02 0.32183E-02 0.36213E-02
 0.32219E-02 0.25918E-02 0.16248E-02 0.48799E-03 -.17151E-03 -.24487E-03 -.35698E-03 -.72358E-03 -.76140E-03 -.23949E-03
 0.11715E-03 -.23949E-03 -.76140E-03 -.72358E-03 -.35698E-03 -.24487E-03 -.17151E-03 0.48799E-03 0.16248E-02 0.25918E-02
 0.32219E-02 0.36213E-02 0.32183E-02 0.13567E-02 -.98561E-03 -.13577E-02 0.17171E-02 0.73933E-02 0.14059E-01 0.21110E-01
 0.28332E-01 0.34548E-01 0.38159E-01 0.38619E-01 0.36434E-01 0.32482E-01 0.28946E-01 0.30621E-01 0.42929E-01 0.66903E-01
 0.96324E-01 0.12042     0.45628     0.41409     0.30708     0.18163     0.83014E-01 0.31889E-01 0.20317E-01 0.26170E-01
 0.31434E-01 0.30384E-01 0.25636E-01 0.20496E-01 0.15667E-01 0.10743E-01 0.60726E-02 0.25072E-02 0.43948E-03 -.19930E-03
 0.49626E-03 0.21603E-02 0.37110E-02 0.38868E-02 0.24579E-02 0.53444E-03 -.57368E-03 -.60828E-03 -.31054E-03 -.35698E-03
 -.67219E-03 -.75790E-03 -.39130E-03 0.14672E-03 0.39648E-03 0.14672E-03 -.39130E-03 -.75790E-03 -.67219E-03 -.35698E-03
 -.31054E-03 -.60828E-03 -.57368E-03 0.53444E-03 0.24579E-02 0.38868E-02 0.37110E-02 0.21603E-02 0.49626E-03 -.19930E-03
 0.43948E-03 0.25072E-02 0.60726E-02 0.10743E-01 0.15667E-01 0.20496E-01 0.25636E-01 0.30384E-01 0.31434E-01 0.26170E-01
 0.20317E-01 0.31889E-01 0.83014E-01 0.18163     0.30708     0.41409     -.47274E-01 -.40965E-01 -.25224E-01 -.74690E-02
 0.54723E-02 0.11237E-01 0.11990E-01 0.11236E-01 0.10814E-01 0.10582E-01 0.99119E-02 0.85844E-02 0.65671E-02 0.39576E-02
 0.14665E-02 0.27458E-03 0.89330E-03 0.24796E-02 0.36731E-02 0.38682E-02 0.33377E-02 0.24474E-02 0.13277E-02 0.21659E-03
 -.48120E-03 -.65801E-03 -.64678E-03 -.72358E-03 -.75790E-03 -.52334E-03 -.93748E-04 0.26415E-03 0.39214E-03 0.26415E-03
 -.93748E-04 -.52334E-03 -.75790E-03 -.72358E-03 -.64678E-03 -.65801E-03 -.48120E-03 0.21659E-03 0.13277E-02 0.24474E-02
 0.33377E-02 0.38682E-02 0.36731E-02 0.24796E-02 0.89330E-03 0.27458E-03 0.14665E-02 0.39576E-02 0.65671E-02 0.85844E-02
 0.99119E-02 0.10582E-01 0.10814E-01 0.11236E-01 0.11990E-01 0.11237E-01 0.54723E-02 -.74690E-02 -.25224E-01 -.40965E-01
 -.42877     -.38552     -.27657     -.15058     -.53628E-01 -.48409E-02 0.58821E-02 0.11385E-02 -.26237E-02 -.15874E-02
 0.95984E-03 0.21833E-02 0.20232E-02 0.14403E-02 0.10341E-02 0.12366E-02 0.23351E-02 0.38031E-02 0.43864E-02 0.34088E-02
 0.16368E-02 0.43389E-03 0.27609E-03 0.48410E-03 0.27777E-03 -.33865E-03 -.80288E-03 -.76140E-03 -.39130E-03 -.93748E-04
 -.72415E-04 -.22082E-03 -.30757E-03 -.22082E-03 -.72415E-04 -.93748E-04 -.39130E-03 -.76140E-03 -.80288E-03 -.33865E-03
 0.27777E-03 0.48410E-03 0.27609E-03 0.43389E-03 0.16368E-02 0.34088E-02 0.43864E-02 0.38031E-02 0.23351E-02 0.12366E-02
 0.10341E-02 0.14403E-02 0.20232E-02 0.21833E-02 0.95984E-03 -.15874E-02 -.26237E-02 0.11385E-02 0.58821E-02 -.48409E-02
 -.53628E-01 -.15058     -.27657     -.38552     0.24176E-01 0.22506E-01 0.17932E-01 0.11791E-01 0.60863E-02 0.25940E-02
 0.17446E-02 0.23461E-02 0.26434E-02 0.18075E-02 0.41871E-03 -.39115E-03 -.55577E-04 0.11598E-02 0.26419E-02 0.38350E-02
 0.42746E-02 0.36634E-02 0.21719E-02 0.51419E-03 -.52242E-03 -.67582E-03 -.30747E-03 0.22859E-04 0.12245E-04 -.24521E-03
 -.41388E-03 -.23949E-03 0.14672E-03 0.26415E-03 -.22082E-03 -.10187E-02 -.14125E-02 -.10187E-02 -.22082E-03 0.26415E-03
 0.14672E-03 -.23949E-03 -.41388E-03 -.24521E-03 0.12245E-04 0.22859E-04 -.30747E-03 -.67582E-03 -.52242E-03 0.51419E-03
 0.21719E-02 0.36634E-02 0.42746E-02 0.38350E-02 0.26419E-02 0.11598E-02 -.55577E-04 -.39115E-03 0.41871E-03 0.18075E-02
 0.26434E-02 0.23461E-02 0.17446E-02 0.25940E-02 0.60863E-02 0.11791E-01 0.17932E-01 0.22506E-01 0.43935     0.39666    
 0.28851     0.16198     0.62841E-01 0.11719E-01 0.14211E-03 0.53626E-02 0.92029E-02 0.66442E-02 0.17015E-02 -.10684E-02
 -.74202E-03 0.12663E-02 0.35619E-02 0.51918E-02 0.52395E-02 0.33776E-02 0.64166E-03 -.12441E-02 -.15167E-02 -.90347E-03
 -.46035E-03 -.42401E-03 -.42469E-03 -.28320E-03 -.10330E-03 0.11715E-03 0.39648E-03 0.39214E-03 -.30757E-03 -.14125E-02
 -.19640E-02 -.14125E-02 -.30757E-03 0.39214E-03 0.39648E-03 0.11715E-03 -.10330E-03 -.28320E-03 -.42469E-03 -.42401E-03
 -.46035E-03 -.90347E-03 -.15167E-02 -.12441E-02 0.64166E-03 0.33776E-02 0.52395E-02 0.51918E-02 0.35619E-02 0.12663E-02
 -.74202E-03 -.10684E-02 0.17015E-02 0.66442E-02 0.92029E-02 0.53626E-02 0.14211E-03 0.11719E-01 0.62841E-01 0.16198    
 0.28851     0.39666     0.24176E-01 0.22506E-01 0.17932E-01 0.11791E-01 0.60863E-02 0.25940E-02 0.17446E-02 0.23461E-02
 0.26434E-02 0.18075E-02 0.41871E-03 -.39115E-03 -.55577E-04 0.11598E-02 0.26419E-02 0.38350E-02 0.42746E-02 0.36634E-02
 0.21719E-02 0.51419E-03 -.52242E-03 -.67582E-03 -.30747E-03 0.22859E-04 0.12245E-04 -.24521E-03 -.41388E-03 -.23949E-03
 0.14672E-03 0.26415E-03 -.22082E-03 -.10187E-02 -.14125E-02 -.10187E-02 -.22082E-03 0.26415E-03 0.14672E-03 -.23949E-03
 -.41388E-03 -.24521E-03 0.12245E-04 0.22859E-04 -.30747E-03 -.67582E-03 -.52242E-03 0.51419E-03 0.21719E-02 0.36634E-02
 0.42746E-02 0.38350E-02 0.26419E-02 0.11598E-02 -.55577E-04 -.39115E-03 0.41871E-03 0.18075E-02 0.26434E-02 0.23461E-02
 0.17446E-02 0.25940E-02 0.60863E-02 0.11791E-01 0.17932E-01 0.22506E-01 -.42877     -.38552     -.27657     -.15058    
 -.53628E-01 -.48409E-02 0.58821E-02 0.11385E-02 -.26237E-02 -.15874E-02 0.95984E-03 0.21833E-02 0.20232E-02 0.14403E-02
 0.10341E-02 0.12366E-02 0.23351E-02 0.38031E-02 0.43864E-02 0.34088E-02 0.16368E-02 0.43389E-03 0.27609E-03 0.48410E-03
 0.27777E-03 -.33865E-03 -.80288E-03 -.76140E-03 -.39130E-03 -.93748E-04 -.72415E-04 -.22082E-03 -.30757E-03 -.22082E-03
 -.72415E-04 -.93748E-04 -.39130E-03 -.76140E-03 -.80288E-03 -.33865E-03 0.27777E-03 0.48410E-03 0.27609E-03 0.43389E-03
 0.16368E-02 0.34088E-02 0.43864E-02 0.38031E-02 0.23351E-02 0.12366E-02 0.10341E-02 0.14403E-02 0.20232E-02 0.21833E-02
 0.95984E-03 -.15874E-02 -.26237E-02 0.11385E-02 0.58821E-02 -.48409E-02 -.53628E-01 -.15058     -.27657     -.38552    
 -.47274E-01 -.40965E-01 -.25224E-01 -.74690E-02 0.54723E-02 0.11237E-01 0.11990E-01 0.11236E-01 0.10814E-01 0.10582E-01
 0.99119E-02 0.85844E-02 0.65671E-02 0.39576E-02 0.14665E-02 0.27458E-03 0.89330E-03 0.24796E-02 0.36731E-02 0.38682E-02
 0.33377E-02 0.24474E-02 0.13277E-02 0.21659E-03 -.48120E-03 -.65801E-03 -.64678E-03 -.72358E-03 -.75790E-03 -.52334E-03
 -.93748E-04 0.26415E-03 0.39214E-03 0.26415E-03 -.93748E-04 -.52334E-03 -.75790E-03 -.72358E-03 -.64678E-03 -.65801E-03
 -.48120E-03 0.21659E-03 0.13277E-02 0.24474E-02 0.33377E-02 0.38682E-02 0.36731E-02 0.24796E-02 0.89330E-03 0.27458E-03
 0.14665E-02 0.39576E-02 0.65671E-02 0.85844E-02 0.99119E-02 0.10582E-01 0.10814E-01 0.11236E-01 0.11990E-01 0.11237E-01
 0.54723E-02 -.74690E-02 -.25224E-01 -.40965E-01 0.45628     0.41409     0.30708     0.18163     0.83014E-01 0.31889E-01
 0.20317E-01 0.26170E-01 0.31434E-01 0.30384E-01 0.25636E-01 0.20496E-01 0.15667E-01 0.10743E-01 0.60726E-02 0.25072E-02
 0.43948E-03 -.19930E-03 0.49626E-03 0.21603E-02 0.37110E-02 0.38868E-02 0.24579E-02 0.53444E-03 -.57368E-03 -.60828E-03
 -.31054E-03 -.35698E-03 -.67219E-03 -.75790E-03 -.39130E-03 0.14672E-03 0.39648E-03 0.14672E-03 -.39130E-03 -.75790E-03
 -.67219E-03 -.35698E-03 -.31054E-03 -.60828E-03 -.57368E-03 0.53444E-03 0.24579E-02 0.38868E-02 0.37110E-02 0.21603E-02
 0.49626E-03 -.19930E-03 0.43948E-03 0.25072E-02 0.60726E-02 0.10743E-01 0.15667E-01 0.20496E-01 0.25636E-01 0.30384E-01
 0.31434E-01 0.26170E-01 0.20317E-01 0.31889E-01 0.83014E-01 0.18163     0.30708     0.41409     0.12967     0.12042    
 0.96324E-01 0.66903E-01 0.42929E-01 0.30621E-01 0.28946E-01 0.32482E-01 0.36434E-01 0.38619E-01 0.38159E-01 0.34548E-01
 0.28332E-01 0.21110E-01 0.14059E-01 0.73933E-02 0.17171E-02 -.13577E-02 -.98561E-03 0.13567E-02 0.32183E-02 0.36213E-02
 0.32219E-02 0.25918E-02 0.16248E-02 0.48799E-03 -.17151E-03 -.24487E-03 -.35698E-03 -.72358E-03 -.76140E-03 -.23949E-03
 0.11715E-03 -.23949E-03 -.76140E-03 -.72358E-03 -.35698E-03 -.24487E-03 -.17151E-03 0.48799E-03 0.16248E-02 0.25918E-02
 0.32219E-02 0.36213E-02 0.32183E-02 0.13567E-02 -.98561E-03 -.13577E-02 0.17171E-02 0.73933E-02 0.14059E-01 0.21110E-01
 0.28332E-01 0.34548E-01 0.38159E-01 0.38619E-01 0.36434E-01 0.32482E-01 0.28946E-01 0.30621E-01 0.42929E-01 0.66903E-01
 0.96324E-01 0.12042     -.39249     -.35037     -.24432     -.12155     -.26276E-01 0.22827E-01 0.34495E-01 0.30386E-01
 0.28107E-01 0.32704E-01 0.39254E-01 0.41406E-01 0.37542E-01 0.30168E-01 0.21865E-01 0.13706E-01 0.68412E-02 0.29787E-02