   4   4   0   0
  0.1280000E+03  0.8000000E-09  0.8000000E-09  0.8000000E-09  0.5000000E-15
  1.000000000000000E-004
  CAR 
 unknown system                          
      3.06569768    -20.51954862  301     -5.89654236      1.00000000
    -20.520  0.0000E+00  0.0000E+00
    -20.441  0.0000E+00  0.0000E+00
    -20.362  0.0000E+00  0.0000E+00
    -20.284  0.0000E+00  0.0000E+00
    -20.205  0.0000E+00  0.0000E+00
    -20.126  0.0000E+00  0.0000E+00
    -20.048  0.0000E+00  0.0000E+00
    -19.969  0.0000E+00  0.0000E+00
    -19.891  0.0000E+00  0.0000E+00
    -19.812  0.0000E+00  0.0000E+00
    -19.733  0.0000E+00  0.0000E+00
    -19.655  0.1271E-14  0.9992E-16
    -19.576  0.9984E-13  0.7949E-14
    -19.498  0.5837E-11  0.4668E-12
    -19.419  0.2517E-09  0.2025E-10
    -19.340  0.8004E-08  0.6495E-09
    -19.262  0.1878E-06  0.1541E-07
    -19.183  0.3251E-05  0.2710E-06
    -19.104  0.4155E-04  0.3538E-05
    -19.026  0.3923E-03  0.3438E-04
    -18.947  0.2736E-02  0.2495E-03
    -18.869  0.1411E-01  0.1359E-02
    -18.790  0.5377E-01  0.5586E-02
    -18.711  0.1516E+00  0.1750E-01
    -18.633  0.3161E+00  0.4235E-01
    -18.554  0.4877E+00  0.8069E-01
    -18.475  0.5567E+00  0.1245E+00
    -18.397  0.4703E+00  0.1614E+00
    -18.318  0.2939E+00  0.1845E+00
    -18.240  0.1359E+00  0.1952E+00
    -18.161  0.4649E-01  0.1989E+00
    -18.082  0.1176E-01  0.1998E+00
    -18.004  0.2199E-02  0.2000E+00
    -17.925  0.3040E-03  0.2000E+00
    -17.847  0.3104E-04  0.2000E+00
    -17.768  0.2341E-05  0.2000E+00
    -17.689  0.1304E-06  0.2000E+00
    -17.611  0.5357E-08  0.2000E+00
    -17.532  0.1624E-09  0.2000E+00
    -17.453  0.3630E-11  0.2000E+00
    -17.375  0.5988E-13  0.2000E+00
    -17.296  0.5649E-15  0.2000E+00
    -17.218  0.0000E+00  0.2000E+00
    -17.139  0.0000E+00  0.2000E+00
    -17.060  0.0000E+00  0.2000E+00
    -16.982  0.0000E+00  0.2000E+00
    -16.903  0.0000E+00  0.2000E+00
    -16.825  0.0000E+00  0.2000E+00
    -16.746  0.0000E+00  0.2000E+00
    -16.667  0.0000E+00  0.2000E+00
    -16.589  0.0000E+00  0.2000E+00
    -16.510  0.0000E+00  0.2000E+00
    -16.431  0.0000E+00  0.2000E+00
    -16.353  0.0000E+00  0.2000E+00
    -16.274  0.0000E+00  0.2000E+00
    -16.196  0.0000E+00  0.2000E+00
    -16.117  0.0000E+00  0.2000E+00
    -16.038  0.0000E+00  0.2000E+00
    -15.960  0.0000E+00  0.2000E+00
    -15.881  0.0000E+00  0.2000E+00
    -15.802  0.0000E+00  0.2000E+00
    -15.724  0.0000E+00  0.2000E+00
    -15.645  0.0000E+00  0.2000E+00
    -15.567  0.0000E+00  0.2000E+00
    -15.488  0.0000E+00  0.2000E+00
    -15.409  0.0000E+00  0.2000E+00
    -15.331  0.0000E+00  0.2000E+00
    -15.252  0.0000E+00  0.2000E+00
    -15.174  0.0000E+00  0.2000E+00
    -15.095  0.0000E+00  0.2000E+00
    -15.016  0.0000E+00  0.2000E+00
    -14.938  0.1695E-14  0.2000E+00
    -14.859  0.1312E-12  0.2000E+00
    -14.780  0.7525E-11  0.2000E+00
    -14.702  0.3181E-09  0.2000E+00
    -14.623  0.9917E-08  0.2000E+00
    -14.545  0.2281E-06  0.2000E+00
    -14.466  0.3872E-05  0.2000E+00
    -14.387  0.4853E-04  0.2000E+00
    -14.309  0.4492E-03  0.2000E+00
    -14.230  0.3072E-02  0.2003E+00
    -14.152  0.1553E-01  0.2015E+00
    -14.073  0.5805E-01  0.2061E+00
    -13.994  0.1605E+00  0.2187E+00
    -13.916  0.3281E+00  0.2445E+00
    -13.837  0.4964E+00  0.2835E+00
    -13.758  0.5557E+00  0.3272E+00
    -13.680  0.4603E+00  0.3634E+00
    -13.601  0.2821E+00  0.3856E+00
    -13.523  0.1279E+00  0.3956E+00
    -13.444  0.4291E-01  0.3990E+00
    -13.365  0.1064E-01  0.3998E+00
    -13.287  0.1952E-02  0.4000E+00
    -13.208  0.2645E-03  0.4000E+00
    -13.130  0.2649E-04  0.4000E+00
    -13.051  0.1959E-05  0.4000E+00
    -12.972  0.1069E-06  0.4000E+00
    -12.894  0.4307E-08  0.4000E+00
    -12.815  0.1283E-09  0.4000E+00
    -12.736  0.1990E-10  0.4000E+00
    -12.658  0.6776E-09  0.4000E+00
    -12.579  0.1980E-07  0.4000E+00
    -12.501  0.4270E-06  0.4000E+00
    -12.422  0.6795E-05  0.4000E+00
    -12.343  0.7985E-04  0.4000E+00
    -12.265  0.6931E-03  0.4001E+00
    -12.186  0.4446E-02  0.4004E+00
    -12.107  0.2108E-01  0.4021E+00
    -12.029  0.7389E-01  0.4079E+00
    -11.950  0.1916E+00  0.4229E+00
    -11.872  0.3674E+00  0.4518E+00
    -11.793  0.5214E+00  0.4928E+00
    -11.714  0.5475E+00  0.5359E+00
    -11.636  0.4254E+00  0.5693E+00
    -11.557  0.2446E+00  0.5885E+00
    -11.479  0.1040E+00  0.5967E+00
    -11.400  0.3273E-01  0.5993E+00
    -11.321  0.7613E-02  0.5999E+00
    -11.243  0.1309E-02  0.6000E+00
    -11.164  0.1664E-03  0.6000E+00
    -11.085  0.1562E-04  0.6000E+00
    -11.007  0.1083E-05  0.6000E+00
    -10.928  0.5544E-07  0.6000E+00
    -10.850  0.2094E-08  0.6000E+00
    -10.771  0.5832E-10  0.6000E+00
    -10.692  0.1198E-11  0.6000E+00
    -10.614  0.1836E-13  0.6000E+00
    -10.535  0.0000E+00  0.6000E+00
    -10.457  0.0000E+00  0.6000E+00
    -10.378  0.0000E+00  0.6000E+00
    -10.299  0.0000E+00  0.6000E+00
    -10.221  0.0000E+00  0.6000E+00
    -10.142  0.0000E+00  0.6000E+00
    -10.063  0.0000E+00  0.6000E+00
     -9.985  0.0000E+00  0.6000E+00
     -9.906  0.0000E+00  0.6000E+00
     -9.828  0.0000E+00  0.6000E+00
     -9.749  0.0000E+00  0.6000E+00
     -9.670  0.0000E+00  0.6000E+00
     -9.592  0.0000E+00  0.6000E+00
     -9.513  0.0000E+00  0.6000E+00
     -9.434  0.0000E+00  0.6000E+00
     -9.356  0.0000E+00  0.6000E+00
     -9.277  0.0000E+00  0.6000E+00
     -9.199  0.0000E+00  0.6000E+00
     -9.120  0.0000E+00  0.6000E+00
     -9.041  0.0000E+00  0.6000E+00
     -8.963  0.0000E+00  0.6000E+00
     -8.884  0.0000E+00  0.6000E+00
     -8.806  0.0000E+00  0.6000E+00
     -8.727  0.0000E+00  0.6000E+00
     -8.648  0.0000E+00  0.6000E+00
     -8.570  0.0000E+00  0.6000E+00
     -8.491  0.0000E+00  0.6000E+00
     -8.412  0.0000E+00  0.6000E+00
     -8.334  0.0000E+00  0.6000E+00
     -8.255  0.0000E+00  0.6000E+00
     -8.177  0.0000E+00  0.6000E+00
     -8.098  0.0000E+00  0.6000E+00
     -8.019  0.5649E-15  0.6000E+00
     -7.941  0.5225E-13  0.6000E+00
     -7.862  0.3362E-11  0.6000E+00
     -7.784  0.1595E-09  0.6000E+00
     -7.705  0.5581E-08  0.6000E+00
     -7.626  0.1440E-06  0.6000E+00
     -7.548  0.2743E-05  0.6000E+00
     -7.469  0.3857E-04  0.6000E+00
     -7.390  0.4005E-03  0.6000E+00
     -7.312  0.3072E-02  0.6003E+00
     -7.233  0.1741E-01  0.6016E+00
     -7.155  0.7298E-01  0.6074E+00
     -7.076  0.2262E+00  0.6252E+00
     -6.997  0.5184E+00  0.6659E+00
     -6.919  0.8792E+00  0.7350E+00
     -6.840  0.1103E+01  0.8218E+00
     -6.761  0.1024E+01  0.9023E+00
     -6.683  0.7038E+00  0.9576E+00
     -6.604  0.3578E+00  0.9858E+00
     -6.526  0.1345E+00  0.9964E+00
     -6.447  0.3741E-01  0.9993E+00
     -6.368  0.7694E-02  0.9999E+00
     -6.290  0.1169E-02  0.1000E+01
     -6.211  0.1313E-03  0.1000E+01
     -6.133  0.1089E-04  0.1000E+01
     -6.054  0.6673E-06  0.1000E+01
     -5.975  0.3017E-07  0.1000E+01
     -5.897  0.1006E-08  0.1000E+01
     -5.818  0.2475E-10  0.1000E+01
     -5.739  0.4496E-12  0.1000E+01
     -5.661  0.5649E-14  0.1000E+01
     -5.582  0.0000E+00  0.1000E+01
     -5.504  0.0000E+00  0.1000E+01
     -5.425  0.0000E+00  0.1000E+01
     -5.346  0.0000E+00  0.1000E+01
     -5.268  0.0000E+00  0.1000E+01
     -5.189  0.0000E+00  0.1000E+01
     -5.111  0.0000E+00  0.1000E+01
     -5.032  0.0000E+00  0.1000E+01
     -4.953  0.0000E+00  0.1000E+01
     -4.875  0.0000E+00  0.1000E+01
     -4.796  0.0000E+00  0.1000E+01
     -4.717  0.0000E+00  0.1000E+01
     -4.639  0.0000E+00  0.1000E+01
     -4.560  0.0000E+00  0.1000E+01
     -4.482  0.0000E+00  0.1000E+01
     -4.403  0.0000E+00  0.1000E+01
     -4.324  0.0000E+00  0.1000E+01
     -4.246  0.0000E+00  0.1000E+01
     -4.167  0.0000E+00  0.1000E+01
     -4.088  0.0000E+00  0.1000E+01
     -4.010  0.0000E+00  0.1000E+01
     -3.931  0.0000E+00  0.1000E+01
     -3.853  0.0000E+00  0.1000E+01
     -3.774  0.0000E+00  0.1000E+01
     -3.695  0.0000E+00  0.1000E+01
     -3.617  0.0000E+00  0.1000E+01
     -3.538  0.0000E+00  0.1000E+01
     -3.460  0.0000E+00  0.1000E+01
     -3.381  0.0000E+00  0.1000E+01
     -3.302  0.0000E+00  0.1000E+01
     -3.224  0.0000E+00  0.1000E+01
     -3.145  0.0000E+00  0.1000E+01
     -3.066  0.0000E+00  0.1000E+01
     -2.988  0.0000E+00  0.1000E+01
     -2.909  0.0000E+00  0.1000E+01
     -2.831  0.0000E+00  0.1000E+01
     -2.752  0.0000E+00  0.1000E+01
     -2.673  0.0000E+00  0.1000E+01
     -2.595  0.0000E+00  0.1000E+01
     -2.516  0.0000E+00  0.1000E+01
     -2.438  0.0000E+00  0.1000E+01
     -2.359  0.0000E+00  0.1000E+01
     -2.280  0.0000E+00  0.1000E+01
     -2.202  0.0000E+00  0.1000E+01
     -2.123  0.0000E+00  0.1000E+01
     -2.044  0.0000E+00  0.1000E+01
     -1.966  0.0000E+00  0.1000E+01
     -1.887  0.0000E+00  0.1000E+01
     -1.809  0.0000E+00  0.1000E+01
     -1.730  0.0000E+00  0.1000E+01
     -1.651  0.0000E+00  0.1000E+01
     -1.573  0.1412E-15  0.1000E+01
     -1.494  0.7343E-14  0.1000E+01
     -1.415  0.5184E-12  0.1000E+01
     -1.337  0.2687E-10  0.1000E+01
     -1.258  0.1027E-08  0.1000E+01
     -1.180  0.2895E-07  0.1000E+01
     -1.101  0.6022E-06  0.1000E+01
     -1.022  0.9245E-05  0.1000E+01
     -0.944  0.1048E-03  0.1000E+01
     -0.865  0.8777E-03  0.1000E+01
     -0.787  0.5431E-02  0.1001E+01
     -0.708  0.2485E-01  0.1002E+01
     -0.629  0.8405E-01  0.1009E+01
     -0.551  0.2105E+00  0.1026E+01
     -0.472  0.3911E+00  0.1056E+01
     -0.393  0.5451E+00  0.1099E+01
     -0.315  0.5949E+00  0.1146E+01
     -0.236  0.5869E+00  0.1192E+01
     -0.158  0.6700E+00  0.1245E+01
     -0.079  0.8978E+00  0.1315E+01
      0.000  0.1106E+01  0.1402E+01
      0.078  0.1074E+01  0.1487E+01
      0.157  0.7831E+00  0.1548E+01
      0.235  0.4240E+00  0.1582E+01
      0.314  0.1700E+00  0.1595E+01
      0.393  0.5043E-01  0.1599E+01
      0.471  0.1109E-01  0.1600E+01
      0.550  0.2097E-02  0.1600E+01
      0.629  0.2414E-02  0.1600E+01
      0.707  0.1178E-01  0.1601E+01
      0.786  0.4649E-01  0.1605E+01
      0.864  0.1359E+00  0.1615E+01
      0.943  0.2939E+00  0.1639E+01
      1.022  0.4703E+00  0.1676E+01
      1.100  0.5567E+00  0.1719E+01
      1.179  0.4877E+00  0.1758E+01
      1.257  0.3161E+00  0.1782E+01
      1.336  0.1516E+00  0.1794E+01
      1.415  0.5377E-01  0.1799E+01
      1.493  0.1411E-01  0.1800E+01
      1.572  0.2736E-02  0.1800E+01
      1.651  0.3923E-03  0.1800E+01
      1.729  0.4155E-04  0.1800E+01
      1.808  0.3251E-05  0.1800E+01
      1.886  0.1878E-06  0.1800E+01
      1.965  0.8004E-08  0.1800E+01
      2.044  0.2517E-09  0.1800E+01
      2.122  0.5837E-11  0.1800E+01
      2.201  0.9998E-13  0.1800E+01
      2.280  0.1130E-14  0.1800E+01
      2.358  0.0000E+00  0.1800E+01
      2.437  0.0000E+00  0.1800E+01
      2.515  0.0000E+00  0.1800E+01
      2.594  0.0000E+00  0.1800E+01
      2.673  0.0000E+00  0.1800E+01
      2.751  0.0000E+00  0.1800E+01
      2.830  0.0000E+00  0.1800E+01
      2.908  0.0000E+00  0.1800E+01
      2.987  0.0000E+00  0.1800E+01
      3.066  0.0000E+00  0.1800E+01
