    4    4   10    1
  0.1280000E+03  0.8000000E-09  0.8000000E-09  0.8000000E-09  0.5000000E-15
  1.000000000000000E-004
  CAR 
 unknown system                          
   10    1    9
 
  0.0000000E+00  0.0000000E+00  0.0000000E+00  0.1000000E+01
   1      -18.519549
   2      -13.807611
   3      -11.780256
   4       -6.859470
   5       -6.859470
   6       -0.390039
   7       -0.002973
   8       -0.002973
   9        1.065698
