       N       E                     dE             d eps       ncg     rms          rms(c)
DAV:   1     0.877949208477E+01    0.87795E+01   -0.20950E+03    26   0.357E+02
DAV:   2    -0.232650130711E+02   -0.32045E+02   -0.31991E+02    19   0.118E+02
DAV:   3    -0.257900529252E+02   -0.25250E+01   -0.25249E+01    36   0.340E+01
DAV:   4    -0.257940340587E+02   -0.39811E-02   -0.39807E-02    36   0.112E+00
DAV:   5    -0.257940359643E+02   -0.19056E-05   -0.19060E-05    19   0.224E-02    0.815E+00
DAV:   6    -0.233851714081E+02    0.24089E+01   -0.39931E+00    19   0.133E+01    0.382E+00
DAV:   7    -0.228238680730E+02    0.56130E+00   -0.23565E+00    28   0.962E+00    0.131E+00
DAV:   8    -0.227865322811E+02    0.37336E-01   -0.17805E-01    18   0.331E+00    0.471E-01
DAV:   9    -0.227766142844E+02    0.99180E-02   -0.22498E-02    28   0.108E+00    0.221E-01
DAV:  10    -0.227786732757E+02   -0.20590E-02   -0.28721E-02    20   0.963E-01    0.891E-02
DAV:  11    -0.227823889728E+02   -0.37157E-02   -0.17617E-03    20   0.295E-01    0.624E-02
DAV:  12    -0.227863725831E+02   -0.39836E-02   -0.70828E-04    20   0.163E-01    0.217E-02
DAV:  13    -0.227875634838E+02   -0.11909E-02   -0.42866E-04    20   0.134E-01    0.170E-02
DAV:  14    -0.227881110368E+02   -0.54755E-03   -0.10209E-04    20   0.668E-02    0.425E-03
DAV:  15    -0.227881623499E+02   -0.51313E-04   -0.62569E-06    20   0.195E-02
   1 F= -.22788162E+02 E0= -.22788162E+02  d E =-.227882E+02
       N       E                     dE             d eps       ncg     rms          rms(c)
DAV:   1    -0.222884405537E+02    0.49967E+00   -0.17256E+01    19   0.375E+01    0.170E+00
DAV:   2    -0.222091979562E+02    0.79243E-01   -0.24627E-01    26   0.470E+00    0.865E-01
DAV:   3    -0.221932718037E+02    0.15926E-01   -0.18341E-01    27   0.309E+00    0.272E-01
DAV:   4    -0.221907123750E+02    0.25594E-02   -0.11775E-02    18   0.809E-01    0.117E-01
DAV:   5    -0.221908404399E+02   -0.12806E-03   -0.16969E-03    18   0.256E-01    0.216E-02
DAV:   6    -0.221909091000E+02   -0.68660E-04   -0.15376E-04    19   0.891E-02
   2 F= -.22190909E+02 E0= -.22190909E+02  d E =0.597253E+00
       N       E                     dE             d eps       ncg     rms          rms(c)
DAV:   1    -0.228734563754E+02   -0.68262E+00   -0.14628E+01    18   0.352E+01    0.151E+00
DAV:   2    -0.228081022575E+02    0.65354E-01   -0.20066E-01    26   0.423E+00    0.803E-01
DAV:   3    -0.227936936735E+02    0.14409E-01   -0.14412E-01    18   0.279E+00    0.212E-01
DAV:   4    -0.227934586642E+02    0.23501E-03   -0.29494E-02    26   0.127E+00    0.177E-01
DAV:   5    -0.227927465131E+02    0.71215E-03   -0.52571E-03    18   0.572E-01    0.247E-02
DAV:   6    -0.227927854989E+02   -0.38986E-04   -0.24260E-04    18   0.141E-01
   3 F= -.22792785E+02 E0= -.22792785E+02  d E =-.462315E-02
