<?xml version="1.0" encoding="ISO-8859-1"?>
<modeling>
 <generator>
  <i name="program" type="string">vasp </i>
  <i name="version" type="string">5.2.12  </i>
  <i name="subversion" type="string">11Nov11 complex                                                      parallel </i>
  <i name="platform" type="string">LinuxIFC </i>
  <i name="date" type="string">2012 11 03 </i>
  <i name="time" type="string">02:06:34 </i>
 </generator>
 <incar>
  <i type="string" name="PREC">normal</i>
  <i type="int" name="IBRION">     2</i>
  <i type="int" name="NSW">    10</i>
  <i name="ENCUT">    250.00000000</i>
  <i type="int" name="ISMEAR">     0</i>
 </incar>
 <kpoints>
  <generation param="Monkhorst-Pack">
   <v type="int" name="divisions">       1        1        1 </v>
   <v name="usershift">      0.00000000       0.00000000       0.00000000 </v>
   <v name="genvec1">      1.00000000       0.00000000       0.00000000 </v>
   <v name="genvec2">      0.00000000       1.00000000       0.00000000 </v>
   <v name="genvec3">      0.00000000       0.00000000       1.00000000 </v>
   <v name="shift">      0.00000000       0.00000000       0.00000000 </v>
  </generation>
  <varray name="kpointlist" >
   <v>       0.00000000       0.00000000       0.00000000 </v>
  </varray>
  <varray name="weights" >
   <v>       1.00000000 </v>
  </varray>
 </kpoints>
 <parameters>
  <separator name="general" >
   <i type="string" name="SYSTEM">unknown system</i>
   <i type="logical" name="LCOMPAT"> F  </i>
  </separator>
  <separator name="electronic" >
   <i type="string" name="PREC">normal</i>
   <i name="ENMAX">    250.00000000</i>
   <i name="ENAUG">    644.87300000</i>
   <i name="EDIFF">      0.00010000</i>
   <i type="int" name="IALGO">    38</i>
   <i type="int" name="IWAVPR">    11</i>
   <i type="int" name="NBANDS">     9</i>
   <i name="NELECT">     10.00000000</i>
   <i type="int" name="TURBO">     0</i>
   <i type="int" name="IRESTART">     0</i>
   <i type="int" name="NREBOOT">     0</i>
   <i type="int" name="NMIN">     0</i>
   <i name="EREF">      0.00000000</i>
   <separator name="electronic smearing" >
    <i type="int" name="ISMEAR">     0</i>
    <i name="SIGMA">      0.20000000</i>
    <i name="KSPACING">      0.50000000</i>
    <i type="logical" name="KGAMMA"> T  </i>
   </separator>
   <separator name="electronic projectors" >
    <i type="logical" name="LREAL"> F  </i>
    <v name="ROPT">      0.00000000      0.00000000</v>
    <i type="int" name="LMAXPAW">  -100</i>
    <i type="int" name="LMAXMIX">     2</i>
    <i type="logical" name="NLSPLINE"> F  </i>
   </separator>
   <separator name="electronic startup" >
    <i type="int" name="ISTART">     0</i>
    <i type="int" name="ICHARG">     2</i>
    <i type="int" name="INIWAV">     1</i>
   </separator>
   <separator name="electronic spin" >
    <i type="int" name="ISPIN">     1</i>
    <i type="logical" name="LNONCOLLINEAR"> F  </i>
    <v name="MAGMOM">      1.00000000      1.00000000      1.00000000      1.00000000</v>
    <i name="NUPDOWN">     -1.00000000</i>
    <i type="logical" name="LSORBIT"> F  </i>
    <v name="SAXIS">      0.00000000      0.00000000      1.00000000</v>
    <i type="logical" name="LSPIRAL"> F  </i>
    <v name="QSPIRAL">      0.00000000      0.00000000      0.00000000</v>
    <i type="logical" name="LZEROZ"> F  </i>
   </separator>
   <separator name="electronic exchange-correlation" >
    <i type="logical" name="LASPH"> F  </i>
    <i type="logical" name="LMETAGGA"> F  </i>
   </separator>
   <separator name="electronic convergence" >
    <i type="int" name="NELM">    60</i>
    <i type="int" name="NELMDL">    -5</i>
    <i type="int" name="NELMIN">     2</i>
    <i name="ENINI">    250.00000000</i>
    <separator name="electronic convergence detail" >
     <i type="logical" name="LDIAG"> T  </i>
     <i type="logical" name="LSUBROT"> T  </i>
     <i name="WEIMIN">      0.00100000</i>
     <i name="EBREAK">      0.00000278</i>
     <i name="DEPER">      0.30000000</i>
     <i type="int" name="NRMM">     4</i>
     <i name="TIME">      0.40000000</i>
    </separator>
   </separator>
   <separator name="electronic mixer" >
    <i name="AMIX">      0.40000000</i>
    <i name="BMIX">      1.00000000</i>
    <i name="AMIN">      0.10000000</i>
    <i name="AMIX_MAG">      1.60000000</i>
    <i name="BMIX_MAG">      1.00000000</i>
    <separator name="electronic mixer details" >
     <i type="int" name="IMIX">     4</i>
     <i type="int" name="MAXMIX">   -45</i>
     <i name="WC">    100.00000000</i>
     <i type="int" name="INIMIX">     1</i>
     <i type="int" name="MIXPRE">     1</i>
     <i type="int" name="MREMOVE">     5</i>
    </separator>
   </separator>
   <separator name="electronic dipolcorrection" >
    <i type="logical" name="LDIPOL"> F  </i>
    <i type="logical" name="LMONO"> F  </i>
    <i type="int" name="IDIPOL">     0</i>
    <i name="EPSILON">      1.00000000</i>
    <v name="DIPOL">   -100.00000000   -100.00000000   -100.00000000</v>
    <i name="EFIELD">      0.00000000</i>
   </separator>
  </separator>
  <separator name="grids" >
   <i type="int" name="NGX">    32</i>
   <i type="int" name="NGY">    32</i>
   <i type="int" name="NGZ">    32</i>
   <i type="int" name="NGXF">    64</i>
   <i type="int" name="NGYF">    64</i>
   <i type="int" name="NGZF">    64</i>
   <i type="logical" name="ADDGRID"> F  </i>
  </separator>
  <separator name="ionic" >
   <i type="int" name="NSW">    10</i>
   <i type="int" name="IBRION">     2</i>
   <i type="int" name="ISIF">     2</i>
   <i name="PSTRESS">      0.00000000</i>
   <i name="EDIFFG">      0.00100000</i>
   <i type="int" name="NFREE">     1</i>
   <i name="POTIM">      0.50000000</i>
   <i name="SMASS">     -3.00000000</i>
   <i name="SCALEE">      1.00000000</i>
  </separator>
  <separator name="ionic md" >
   <i name="TEBEG">      0.00010000</i>
   <i name="TEEND">      0.00010000</i>
   <i type="int" name="NBLOCK">     1</i>
   <i type="int" name="KBLOCK">    10</i>
   <i type="int" name="NPACO">   256</i>
   <i name="APACO">     16.00000000</i>
  </separator>
  <separator name="symmetry" >
   <i type="int" name="ISYM">     2</i>
   <i name="SYMPREC">      0.00001000</i>
  </separator>
  <separator name="dos" >
   <i type="logical" name="LORBIT"> F  </i>
   <v name="RWIGS">     -1.00000000     -1.00000000</v>
   <i type="int" name="NEDOS">   301</i>
   <i name="EMIN">     10.00000000</i>
   <i name="EMAX">    -10.00000000</i>
   <i name="EFERMI">      0.00000000</i>
  </separator>
  <separator name="writing" >
   <i type="int" name="NWRITE">     2</i>
   <i type="logical" name="LWAVE"> T  </i>
   <i type="logical" name="LCHARG"> T  </i>
   <i type="logical" name="LPARD"> F  </i>
   <i type="logical" name="LVTOT"> F  </i>
   <i type="logical" name="LVHAR"> F  </i>
   <i type="logical" name="LELF"> F  </i>
   <i type="logical" name="LOPTICS"> F  </i>
   <v name="STM">      0.00000000      0.00000000      0.00000000      0.00000000      0.00000000      0.00000000      0.00000000</v>
  </separator>
  <separator name="performance" >
   <i type="int" name="NPAR">     1</i>
   <i type="int" name="NSIM">     4</i>
   <i type="int" name="NBLK">    -1</i>
   <i type="logical" name="LPLANE"> T  </i>
   <i type="logical" name="LSCALAPACK"> F  </i>
   <i type="logical" name="LSCAAWARE"> F  </i>
   <i type="logical" name="LSCALU"> F  </i>
   <i type="logical" name="LASYNC"> F  </i>
   <i type="logical" name="LORBITALREAL"> F  </i>
  </separator>
  <separator name="miscellaneous" >
   <i type="int" name="IDIOT">     3</i>
   <i type="logical" name="LMUSIC"> F  </i>
   <v name="POMASS">      1.00000000     12.01100000</v>
   <v name="DARWINR">      0.00000000      0.00000000</v>
   <v name="DARWINV">      1.00000000      1.00000000</v>
   <i type="logical" name="LCORR"> T  </i>
  </separator>
  <i type="logical" name="GGA_COMPAT"> T  </i>
  <i type="logical" name="LBERRY"> F  </i>
  <i type="int" name="ICORELEVEL">     0</i>
  <i type="logical" name="LDAU"> F  </i>
  <i type="int" name="I_CONSTRAINED_M">     0</i>
  <separator name="electronic exchange-correlation" >
   <i type="string" name="GGA">--</i>
   <i type="int" name="VOSKOWN">     0</i>
   <i type="logical" name="LHFCALC"> F  </i>
   <i type="string" name="PRECFOCK"></i>
   <i type="logical" name="LHFONE"> F  </i>
   <i type="logical" name="LRHFCALC"> F  </i>
   <i type="logical" name="LTHOMAS"> F  </i>
   <i type="logical" name="LMODELHF"> F  </i>
   <i name="ENCUT4O">     -1.00000000</i>
   <i type="int" name="EXXOEP">     0</i>
   <i type="int" name="FOURORBIT">     0</i>
   <i name="AEXX">      0.00000000</i>
   <i name="HFALPHA">      0.00000000</i>
   <i name="ALDAX">      1.00000000</i>
   <i name="AGGAX">      1.00000000</i>
   <i name="ALDAC">      1.00000000</i>
   <i name="AGGAC">      1.00000000</i>
   <i type="int" name="NKREDX">     1</i>
   <i type="int" name="NKREDY">     1</i>
   <i type="int" name="NKREDZ">     1</i>
   <i type="logical" name="SHIFTRED"> F  </i>
   <i type="logical" name="ODDONLY"> F  </i>
   <i type="logical" name="EVENONLY"> F  </i>
   <i type="int" name="LMAXFOCK">     0</i>
   <i type="int" name="NMAXFOCKAE">     0</i>
   <i type="logical" name="LFOCKAEDFT"> F  </i>
   <i name="HFSCREEN">      0.00000000</i>
   <i name="HFSCREENC">      0.00000000</i>
  </separator>
  <separator name="vdW DFT" >
   <i type="logical" name="LUSE_VDW"> F  </i>
   <i name="Zab_VDW">     -0.84910000</i>
   <i name="PARAM1">      0.12340000</i>
   <i name="PARAM2">      1.00000000</i>
   <i name="PARAM3">      0.00000000</i>
  </separator>
  <separator name="model GW" >
   <i type="int" name="MODEL_GW">     0</i>
   <i name="MODEL_EPS0">     76.80000000</i>
   <i name="MODEL_ALPHA">      1.00000000</i>
  </separator>
  <separator name="linear response parameters" >
   <i type="logical" name="LEPSILON"> F  </i>
   <i type="logical" name="LRPA"> F  </i>
   <i type="logical" name="LNABLA"> F  </i>
   <i type="logical" name="LVEL"> F  </i>
   <i type="int" name="KINTER">     0</i>
   <i name="CSHIFT">      0.10000000</i>
   <i name="OMEGAMAX">     -1.00000000</i>
  </separator>
  <separator name="orbital magnetization" >
   <i type="logical" name="NUCIND"> F  </i>
   <v name="MAGPOS">      0.00000000      0.00000000      0.00000000</v>
   <i type="logical" name="LNICSALL"> T  </i>
   <i type="logical" name="ORBITALMAG"> F  </i>
   <i type="logical" name="LMAGBLOCH"> F  </i>
   <i type="logical" name="LCHIMAG"> F  </i>
   <i type="logical" name="LGAUGE"> T  </i>
   <i type="int" name="MAGATOM">     0</i>
   <v name="MAGDIPOL">      0.00000000      0.00000000      0.00000000</v>
   <v name="AVECCONST">      0.00000000      0.00000000      0.00000000</v>
  </separator>
  <separator name="response functions" >
   <i type="logical" name="LADDER"> F  </i>
   <i type="logical" name="LHARTREE"> T  </i>
   <i type="int" name="IBSE">     0</i>
   <i type="logical" name="LTCTE"> F  </i>
   <i type="logical" name="LTETE"> F  </i>
   <i type="logical" name="LFXCEPS"> F  </i>
   <i type="logical" name="L2ORDER"> F  </i>
   <i type="logical" name="LUSEW"> F  </i>
   <i name="ENCUTGW">     -2.00000000</i>
   <i name="ENCUTGWSOFT">     -2.00000000</i>
   <i name="ENCUTLF">     -1.00000000</i>
   <i type="int" name="LMAXMP2">    -1</i>
   <i name="SCISSOR">      0.00000000</i>
   <i type="int" name="NOMEGA">     0</i>
   <i type="int" name="NOMEGAR">     0</i>
   <i type="int" name="NBANDSGW">    -1</i>
   <i type="int" name="NBANDSO">    -1</i>
   <i type="int" name="NBANDSV">    -1</i>
   <i name="OPTEMAX">      0.00000000</i>
   <i type="int" name="NELM">     1</i>
   <i type="int" name="DIM">     3</i>
   <i type="int" name="ANTIRES">     0</i>
   <i name="OMEGAMAX">    -30.00000000</i>
   <i name="OMEGATL">   -200.00000000</i>
   <i type="int" name="OMEGAGRID">     0</i>
   <i name="CSHIFT">     -0.10000000</i>
   <i type="logical" name="SELFENERGY"> F  </i>
   <i type="logical" name="LSPECTRAL"> F  </i>
   <i type="logical" name="ODDONLYGW"> F  </i>
   <i type="logical" name="EVENONLYGW"> F  </i>
   <i type="int" name="NKREDLFX">     1</i>
   <i type="int" name="NKREDLFY">     1</i>
   <i type="int" name="NKREDLFZ">     1</i>
   <i type="int" name="MAXMEM">  1800</i>
   <i type="int" name="TELESCOPE">     0</i>
  </separator>
 </parameters>
 <atominfo>
  <atoms>       4 </atoms>
  <types>       2 </types>
  <array name="atoms" >
   <dimension dim="1">ion</dimension>
   <field type="string">element</field>
   <field type="int">atomtype</field>
   <set>
    <rc><c>H </c><c>   1</c></rc>
    <rc><c>H </c><c>   1</c></rc>
    <rc><c>C </c><c>   2</c></rc>
    <rc><c>C </c><c>   2</c></rc>
   </set>
  </array>
  <array name="atomtypes" >
   <dimension dim="1">type</dimension>
   <field type="int">atomspertype</field>
   <field type="string">element</field>
   <field>mass</field>
   <field>valence</field>
   <field type="string">pseudopotential</field>
   <set>
    <rc><c>   2</c><c>H </c><c>      1.00000000</c><c>      1.00000000</c><c> PAW_PBE H 15Jun2001                    </c></rc>
    <rc><c>   2</c><c>C </c><c>     12.01100000</c><c>      4.00000000</c><c> PAW_PBE C 08Apr2002                    </c></rc>
   </set>
  </array>
 </atominfo>
 <structure name="initialpos" >
  <crystal>
   <varray name="basis" >
    <v>       8.00000000       0.00000000       0.00000000 </v>
    <v>       0.00000000       8.00000000       0.00000000 </v>
    <v>       0.00000000       0.00000000       8.00000000 </v>
   </varray>
   <i name="volume">    512.00000000 </i>
   <varray name="rec_basis" >
    <v>       0.12500000       0.00000000       0.00000000 </v>
    <v>       0.00000000       0.12500000       0.00000000 </v>
    <v>       0.00000000       0.00000000       0.12500000 </v>
   </varray>
  </crystal>
  <varray name="positions" >
   <v>       0.00000000       0.00000000       0.79075125 </v>
   <v>       0.00000000       0.00000000       0.20924875 </v>
   <v>       0.00000000       0.00000000       0.07601000 </v>
   <v>       0.00000000       0.00000000       0.92399000 </v>
  </varray>
 </structure>
 <calculation>
  <scstep>
   <time name="dav">    0.26    0.26</time>
   <time name="total">    0.72    0.73</time>
   <energy>
    <i name="alphaZ">      0.89086884 </i>
    <i name="ewald">    102.54077057 </i>
    <i name="hartreedc">   -317.70358761 </i>
    <i name="XCdc">     30.23698498 </i>
    <i name="pawpsdc">     77.22553761 </i>
    <i name="pawaedc">    -79.54451240 </i>
    <i name="eentropy">      0.00000000 </i>
    <i name="bandstr">   -122.60668059 </i>
    <i name="atom">    317.74011068 </i>
    <i name="e_fr_energy">      8.77949208 </i>
    <i name="e_wo_entrp">      8.77949208 </i>
    <i name="e_0_energy">      8.77949208 </i>
   </energy>
  </scstep>
  <scstep>
   <time name="dav">    0.20    0.20</time>
   <time name="total">    0.20    0.23</time>
   <energy>
    <i name="e_fr_energy">    -23.26501307 </i>
    <i name="e_wo_entrp">    -23.26501307 </i>
    <i name="e_0_energy">    -23.26501307 </i>
   </energy>
  </scstep>
  <scstep>
   <time name="dav">    0.33    0.33</time>
   <time name="total">    0.33    0.39</time>
   <energy>
    <i name="e_fr_energy">    -25.79005293 </i>
    <i name="e_wo_entrp">    -25.79005293 </i>
    <i name="e_0_energy">    -25.79005293 </i>
   </energy>
  </scstep>
  <scstep>
   <time name="dav">    0.33    0.33</time>
   <time name="total">    0.33    0.38</time>
   <energy>
    <i name="e_fr_energy">    -25.79403406 </i>
    <i name="e_wo_entrp">    -25.79403406 </i>
    <i name="e_0_energy">    -25.79403406 </i>
   </energy>
  </scstep>
  <scstep>
   <time name="dav">    0.21    0.21</time>
   <time name="total">    0.28    0.34</time>
   <energy>
    <i name="e_fr_energy">    -25.79403596 </i>
    <i name="e_wo_entrp">    -25.79403596 </i>
    <i name="e_0_energy">    -25.79403596 </i>
   </energy>
  </scstep>
  <scstep>
   <time name="dav">    0.21    0.21</time>
   <time name="total">    0.71    0.83</time>
   <energy>
    <i name="e_fr_energy">    -23.38517141 </i>
    <i name="e_wo_entrp">    -23.38517141 </i>
    <i name="e_0_energy">    -23.38517141 </i>
   </energy>
  </scstep>
  <scstep>
   <time name="dav">    0.28    0.28</time>
   <time name="total">    0.78    0.90</time>
   <energy>
    <i name="e_fr_energy">    -22.82386807 </i>
    <i name="e_wo_entrp">    -22.82386807 </i>
    <i name="e_0_energy">    -22.82386807 </i>
   </energy>
  </scstep>
  <scstep>
   <time name="dav">    0.20    0.20</time>
   <time name="total">    0.69    0.74</time>
   <energy>
    <i name="e_fr_energy">    -22.78653228 </i>
    <i name="e_wo_entrp">    -22.78653228 </i>
    <i name="e_0_energy">    -22.78653228 </i>
   </energy>
  </scstep>
  <scstep>
   <time name="dav">    0.28    0.28</time>
   <time name="total">    0.77    0.79</time>
   <energy>
    <i name="e_fr_energy">    -22.77661428 </i>
    <i name="e_wo_entrp">    -22.77661428 </i>
    <i name="e_0_energy">    -22.77661428 </i>
   </energy>
  </scstep>
  <scstep>
   <time name="dav">    0.21    0.21</time>
   <time name="total">    0.70    0.79</time>
   <energy>
    <i name="e_fr_energy">    -22.77867328 </i>
    <i name="e_wo_entrp">    -22.77867328 </i>
    <i name="e_0_energy">    -22.77867328 </i>
   </energy>
  </scstep>
  <scstep>
   <time name="dav">    0.21    0.21</time>
   <time name="total">    0.69    0.76</time>
   <energy>
    <i name="e_fr_energy">    -22.78238897 </i>
    <i name="e_wo_entrp">    -22.78238897 </i>
    <i name="e_0_energy">    -22.78238897 </i>
   </energy>
  </scstep>
  <scstep>
   <time name="dav">    0.21    0.21</time>
   <time name="total">    0.69    0.74</time>
   <energy>
    <i name="e_fr_energy">    -22.78637258 </i>
    <i name="e_wo_entrp">    -22.78637258 </i>
    <i name="e_0_energy">    -22.78637258 </i>
   </energy>
  </scstep>
  <scstep>
   <time name="dav">    0.21    0.21</time>
   <time name="total">    0.70    0.83</time>
   <energy>
    <i name="e_fr_energy">    -22.78756348 </i>
    <i name="e_wo_entrp">    -22.78756348 </i>
    <i name="e_0_energy">    -22.78756348 </i>
   </energy>
  </scstep>
  <scstep>
   <time name="dav">    0.21    0.21</time>
   <time name="total">    0.70    0.76</time>
   <energy>
    <i name="e_fr_energy">    -22.78811104 </i>
    <i name="e_wo_entrp">    -22.78811104 </i>
    <i name="e_0_energy">    -22.78811104 </i>
   </energy>
  </scstep>
  <scstep>
   <time name="dav">    0.21    0.21</time>
   <time name="total">    0.63    0.78</time>
   <energy>
    <i name="alphaZ">      0.89086884 </i>
    <i name="ewald">    102.54077057 </i>
    <i name="hartreedc">   -358.50622775 </i>
    <i name="XCdc">     32.64549245 </i>
    <i name="pawpsdc">    147.25535395 </i>
    <i name="pawaedc">   -149.62250616 </i>
    <i name="eentropy">      0.00000000 </i>
    <i name="bandstr">   -115.73202494 </i>
    <i name="atom">    317.74011068 </i>
    <i name="e_fr_energy">    -22.78816235 </i>
    <i name="e_wo_entrp">    -22.78816235 </i>
    <i name="e_0_energy">    -22.78816235 </i>
   </energy>
  </scstep>
  <parameters_embedded>
   <separator name="dft+d2" >
    <i type="logical" name="LVDW"> F  </i>
   </separator>
  </parameters_embedded>
  <structure>
   <crystal>
    <varray name="basis" >
     <v>       8.00000000       0.00000000       0.00000000 </v>
     <v>       0.00000000       8.00000000       0.00000000 </v>
     <v>       0.00000000       0.00000000       8.00000000 </v>
    </varray>
    <i name="volume">    512.00000000 </i>
    <varray name="rec_basis" >
     <v>       0.12500000       0.00000000       0.00000000 </v>
     <v>       0.00000000       0.12500000       0.00000000 </v>
     <v>       0.00000000       0.00000000       0.12500000 </v>
    </varray>
   </crystal>
   <varray name="positions" >
    <v>       0.00000000       0.00000000       0.79075125 </v>
    <v>       0.00000000       0.00000000       0.20924875 </v>
    <v>       0.00000000       0.00000000       0.07601000 </v>
    <v>       0.00000000       0.00000000       0.92399000 </v>
   </varray>
  </structure>
  <varray name="forces" >
   <v>       0.00000000       0.00000000      -0.30400192 </v>
   <v>       0.00000000       0.00000000       0.30400192 </v>
   <v>       0.00000000       0.00000000      -1.01623873 </v>
   <v>       0.00000000       0.00000000       1.01623873 </v>
  </varray>
  <varray name="stress" >
   <v>     -14.96070178       0.00000000       0.00000000 </v>
   <v>       0.00000000     -14.96070178       0.00000000 </v>
   <v>       0.00000000       0.00000000     -18.41254204 </v>
  </varray>
  <energy>
   <i name="e_fr_energy">    -22.78816235 </i>
   <i name="e_wo_entrp">    -22.78816235 </i>
   <i name="e_0_energy">      0.00000000 </i>
  </energy>
  <time name="totalsc">   10.32   11.67</time>
 </calculation>
 <calculation>
  <scstep>
   <time name="dav">    0.21    0.21</time>
   <time name="total">    0.70    0.71</time>
   <energy>
    <i name="alphaZ">      0.89086884 </i>
    <i name="ewald">    113.56191922 </i>
    <i name="hartreedc">   -365.00757117 </i>
    <i name="XCdc">     32.83973208 </i>
    <i name="pawpsdc">    147.27320896 </i>
    <i name="pawaedc">   -149.64036408 </i>
    <i name="eentropy">      0.00000000 </i>
    <i name="bandstr">   -119.94634507 </i>
    <i name="atom">    317.74011068 </i>
    <i name="e_fr_energy">    -22.28844055 </i>
    <i name="e_wo_entrp">    -22.28844055 </i>
    <i name="e_0_energy">    -22.28844055 </i>
   </energy>
  </scstep>
  <scstep>
   <time name="dav">    0.26    0.27</time>
   <time name="total">    0.76    0.82</time>
   <energy>
    <i name="e_fr_energy">    -22.20919796 </i>
    <i name="e_wo_entrp">    -22.20919796 </i>
    <i name="e_0_energy">    -22.20919796 </i>
   </energy>
  </scstep>
  <scstep>
   <time name="dav">    0.27    0.27</time>
   <time name="total">    0.77    0.82</time>
   <energy>
    <i name="e_fr_energy">    -22.19327180 </i>
    <i name="e_wo_entrp">    -22.19327180 </i>
    <i name="e_0_energy">    -22.19327180 </i>
   </energy>
  </scstep>
  <scstep>
   <time name="dav">    0.20    0.20</time>
   <time name="total">    0.70    0.73</time>
   <energy>
    <i name="e_fr_energy">    -22.19071238 </i>
    <i name="e_wo_entrp">    -22.19071238 </i>
    <i name="e_0_energy">    -22.19071238 </i>
   </energy>
  </scstep>
  <scstep>
   <time name="dav">    0.20    0.20</time>
   <time name="total">    0.70    0.72</time>
   <energy>
    <i name="e_fr_energy">    -22.19084044 </i>
    <i name="e_wo_entrp">    -22.19084044 </i>
    <i name="e_0_energy">    -22.19084044 </i>
   </energy>
  </scstep>
  <scstep>
   <time name="dav">    0.21    0.21</time>
   <time name="total">    0.63    0.73</time>
   <energy>
    <i name="alphaZ">      0.89086884 </i>
    <i name="ewald">    113.56191922 </i>
    <i name="hartreedc">   -369.43443259 </i>
    <i name="XCdc">     33.04231727 </i>
    <i name="pawpsdc">    163.12504449 </i>
    <i name="pawaedc">   -165.57431219 </i>
    <i name="eentropy">      0.00000000 </i>
    <i name="bandstr">   -115.54242482 </i>
    <i name="atom">    317.74011068 </i>
    <i name="e_fr_energy">    -22.19090910 </i>
    <i name="e_wo_entrp">    -22.19090910 </i>
    <i name="e_0_energy">    -22.19090910 </i>
   </energy>
  </scstep>
  <structure>
   <crystal>
    <varray name="basis" >
     <v>       8.00000000       0.00000000       0.00000000 </v>
     <v>       0.00000000       8.00000000       0.00000000 </v>
     <v>       0.00000000       0.00000000       8.00000000 </v>
    </varray>
    <i name="volume">    512.00000000 </i>
    <varray name="rec_basis" >
     <v>       0.12500000       0.00000000       0.00000000 </v>
     <v>       0.00000000       0.12500000       0.00000000 </v>
     <v>       0.00000000       0.00000000       0.12500000 </v>
    </varray>
   </crystal>
   <varray name="positions" >
    <v>       0.00000000       0.00000000       0.78891802 </v>
    <v>       0.00000000       0.00000000       0.21108198 </v>
    <v>       0.00000000       0.00000000       0.06988174 </v>
    <v>       0.00000000       0.00000000       0.93011826 </v>
   </varray>
  </structure>
  <varray name="forces" >
   <v>       0.00000000       0.00000000       1.74067844 </v>
   <v>       0.00000000       0.00000000      -1.74067844 </v>
   <v>       0.00000000       0.00000000      13.80385381 </v>
   <v>       0.00000000       0.00000000     -13.80385381 </v>
  </varray>
  <varray name="stress" >
   <v>     -15.30666956       0.00000000       0.00000000 </v>
   <v>       0.00000000     -15.30666956       0.00000000 </v>
   <v>       0.00000000       0.00000000      13.46958602 </v>
  </varray>
  <energy>
   <i name="e_fr_energy">    -22.19090910 </i>
   <i name="e_wo_entrp">    -22.19090910 </i>
   <i name="e_0_energy">      0.00000000 </i>
  </energy>
  <time name="totalsc">    5.18    5.65</time>
 </calculation>
 <calculation>
  <scstep>
   <time name="dav">    0.20    0.20</time>
   <time name="total">    0.70    0.72</time>
   <energy>
    <i name="alphaZ">      0.89086884 </i>
    <i name="ewald">    103.36999349 </i>
    <i name="hartreedc">   -363.33644204 </i>
    <i name="XCdc">     32.85589375 </i>
    <i name="pawpsdc">    163.37644916 </i>
    <i name="pawaedc">   -165.82715328 </i>
    <i name="eentropy">      0.00000000 </i>
    <i name="bandstr">   -111.94317697 </i>
    <i name="atom">    317.74011068 </i>
    <i name="e_fr_energy">    -22.87345638 </i>
    <i name="e_wo_entrp">    -22.87345638 </i>
    <i name="e_0_energy">    -22.87345638 </i>
   </energy>
  </scstep>
  <scstep>
   <time name="dav">    0.27    0.27</time>
   <time name="total">    0.74    0.75</time>
   <energy>
    <i name="e_fr_energy">    -22.80810226 </i>
    <i name="e_wo_entrp">    -22.80810226 </i>
    <i name="e_0_energy">    -22.80810226 </i>
   </energy>
  </scstep>
  <scstep>
   <time name="dav">    0.19    0.19</time>
   <time name="total">    0.67    0.73</time>
   <energy>
    <i name="e_fr_energy">    -22.79369367 </i>
    <i name="e_wo_entrp">    -22.79369367 </i>
    <i name="e_0_energy">    -22.79369367 </i>
   </energy>
  </scstep>
  <scstep>
   <time name="dav">    0.25    0.25</time>
   <time name="total">    0.73    0.78</time>
   <energy>
    <i name="e_fr_energy">    -22.79345866 </i>
    <i name="e_wo_entrp">    -22.79345866 </i>
    <i name="e_0_energy">    -22.79345866 </i>
   </energy>
  </scstep>
  <scstep>
   <time name="dav">    0.21    0.21</time>
   <time name="total">    0.65    0.67</time>
   <energy>
    <i name="e_fr_energy">    -22.79274651 </i>
    <i name="e_wo_entrp">    -22.79274651 </i>
    <i name="e_0_energy">    -22.79274651 </i>
   </energy>
  </scstep>
  <scstep>
   <time name="dav">    0.21    0.21</time>
   <time name="total">    0.59    0.61</time>
   <energy>
    <i name="alphaZ">      0.89086884 </i>
    <i name="ewald">    103.36999349 </i>
    <i name="hartreedc">   -359.44668560 </i>
    <i name="XCdc">     32.67754679 </i>
    <i name="pawpsdc">    148.36702977 </i>
    <i name="pawaedc">   -150.73893699 </i>
    <i name="eentropy">      0.00000000 </i>
    <i name="bandstr">   -115.65271248 </i>
    <i name="atom">    317.74011068 </i>
    <i name="e_fr_energy">    -22.79278550 </i>
    <i name="e_wo_entrp">    -22.79278550 </i>
    <i name="e_0_energy">    -22.79278550 </i>
   </energy>
  </scstep>
  <structure>
   <crystal>
    <varray name="basis" >
     <v>       8.00000000       0.00000000       0.00000000 </v>
     <v>       0.00000000       8.00000000       0.00000000 </v>
     <v>       0.00000000       0.00000000       8.00000000 </v>
    </varray>
    <i name="volume">    512.00000000 </i>
    <varray name="rec_basis" >
     <v>       0.12500000       0.00000000       0.00000000 </v>
     <v>       0.00000000       0.12500000       0.00000000 </v>
     <v>       0.00000000       0.00000000       0.12500000 </v>
    </varray>
   </crystal>
   <varray name="positions" >
    <v>       0.00000000       0.00000000       0.79059016 </v>
    <v>       0.00000000       0.00000000       0.20940984 </v>
    <v>       0.00000000       0.00000000       0.07547148 </v>
    <v>       0.00000000       0.00000000       0.92452852 </v>
   </varray>
  </structure>
  <varray name="forces" >
   <v>       0.00000000       0.00000000      -0.09402846 </v>
   <v>       0.00000000       0.00000000       0.09402846 </v>
   <v>       0.00000000       0.00000000       0.03440709 </v>
   <v>       0.00000000       0.00000000      -0.03440709 </v>
  </varray>
  <varray name="stress" >
   <v>     -14.97929454       0.00000000       0.00000000 </v>
   <v>       0.00000000     -14.97929454       0.00000000 </v>
   <v>       0.00000000       0.00000000     -16.53847808 </v>
  </varray>
  <energy>
   <i name="e_fr_energy">    -22.79278550 </i>
   <i name="e_wo_entrp">    -22.79278550 </i>
   <i name="e_0_energy">      0.00000000 </i>
  </energy>
  <time name="totalsc">    4.86    5.26</time>
  <eigenvalues>
   <array>
    <dimension dim="1">band</dimension>
    <dimension dim="2">kpoint</dimension>
    <dimension dim="3">spin</dimension>
    <field>eigene</field>
    <field>occ</field>
    <set>
     <set comment="spin 1">
      <set comment="kpoint 1">
       <r>  -18.5195    1.0000 </r>
       <r>  -13.8076    1.0000 </r>
       <r>  -11.7803    1.0000 </r>
       <r>   -6.8595    1.0000 </r>
       <r>   -6.8595    1.0000 </r>
       <r>   -0.3900    0.0000 </r>
       <r>   -0.0030    0.0000 </r>
       <r>   -0.0030    0.0000 </r>
       <r>    1.0657    0.0000 </r>
      </set>
     </set>
    </set>
   </array>
  </eigenvalues>
  <separator name="orbital magnetization" >
   <v name="MAGDIPOLOUT">      0.00000000      0.00000000      0.00000000</v>
  </separator>
  <dos>
   <i name="efermi">     -5.89654236 </i>
   <total>
    <array>
     <dimension dim="1">gridpoints</dimension>
     <dimension dim="2">spin</dimension>
     <field>energy</field>
     <field>total</field>
     <field>integrated</field>
     <set>
      <set comment="spin 1">
       <r>   -20.5195     0.0000     0.0000 </r>
       <r>   -20.4409     0.0000     0.0000 </r>
       <r>   -20.3623     0.0000     0.0000 </r>
       <r>   -20.2837     0.0000     0.0000 </r>
       <r>   -20.2051     0.0000     0.0000 </r>
       <r>   -20.1265     0.0000     0.0000 </r>
       <r>   -20.0478     0.0000     0.0000 </r>
       <r>   -19.9692     0.0000     0.0000 </r>
       <r>   -19.8906     0.0000     0.0000 </r>
       <r>   -19.8120     0.0000     0.0000 </r>
       <r>   -19.7334     0.0000     0.0000 </r>
       <r>   -19.6548     0.0000     0.0000 </r>
       <r>   -19.5761     0.0000     0.0000 </r>
       <r>   -19.4975     0.0000     0.0000 </r>
       <r>   -19.4189     0.0000     0.0000 </r>
       <r>   -19.3403     0.0000     0.0000 </r>
       <r>   -19.2617     0.0000     0.0000 </r>
       <r>   -19.1831     0.0000     0.0000 </r>
       <r>   -19.1044     0.0004     0.0000 </r>
       <r>   -19.0258     0.0039     0.0003 </r>
       <r>   -18.9472     0.0274     0.0025 </r>
       <r>   -18.8686     0.1411     0.0136 </r>
       <r>   -18.7900     0.5377     0.0559 </r>
       <r>   -18.7113     1.5158     0.1750 </r>
       <r>   -18.6327     3.1609     0.4235 </r>
       <r>   -18.5541     4.8767     0.8069 </r>
       <r>   -18.4755     5.5670     1.2446 </r>
       <r>   -18.3969     4.7025     1.6143 </r>
       <r>   -18.3183     2.9392     1.8454 </r>
       <r>   -18.2396     1.3591     1.9522 </r>
       <r>   -18.1610     0.4649     1.9888 </r>
       <r>   -18.0824     0.1176     1.9980 </r>
       <r>   -18.0038     0.0220     1.9997 </r>
       <r>   -17.9252     0.0030     2.0000 </r>
       <r>   -17.8466     0.0003     2.0000 </r>
       <r>   -17.7679     0.0000     2.0000 </r>
       <r>   -17.6893     0.0000     2.0000 </r>
       <r>   -17.6107     0.0000     2.0000 </r>
       <r>   -17.5321     0.0000     2.0000 </r>
       <r>   -17.4535     0.0000     2.0000 </r>
       <r>   -17.3748     0.0000     2.0000 </r>
       <r>   -17.2962     0.0000     2.0000 </r>
       <r>   -17.2176     0.0000     2.0000 </r>
       <r>   -17.1390     0.0000     2.0000 </r>
       <r>   -17.0604     0.0000     2.0000 </r>
       <r>   -16.9818     0.0000     2.0000 </r>
       <r>   -16.9031     0.0000     2.0000 </r>
       <r>   -16.8245     0.0000     2.0000 </r>
       <r>   -16.7459     0.0000     2.0000 </r>
       <r>   -16.6673     0.0000     2.0000 </r>
       <r>   -16.5887     0.0000     2.0000 </r>
       <r>   -16.5101     0.0000     2.0000 </r>
       <r>   -16.4314     0.0000     2.0000 </r>
       <r>   -16.3528     0.0000     2.0000 </r>
       <r>   -16.2742     0.0000     2.0000 </r>
       <r>   -16.1956     0.0000     2.0000 </r>
       <r>   -16.1170     0.0000     2.0000 </r>
       <r>   -16.0384     0.0000     2.0000 </r>
       <r>   -15.9597     0.0000     2.0000 </r>
       <r>   -15.8811     0.0000     2.0000 </r>
       <r>   -15.8025     0.0000     2.0000 </r>
       <r>   -15.7239     0.0000     2.0000 </r>
       <r>   -15.6453     0.0000     2.0000 </r>
       <r>   -15.5666     0.0000     2.0000 </r>
       <r>   -15.4880     0.0000     2.0000 </r>
       <r>   -15.4094     0.0000     2.0000 </r>
       <r>   -15.3308     0.0000     2.0000 </r>
       <r>   -15.2522     0.0000     2.0000 </r>
       <r>   -15.1736     0.0000     2.0000 </r>
       <r>   -15.0949     0.0000     2.0000 </r>
       <r>   -15.0163     0.0000     2.0000 </r>
       <r>   -14.9377     0.0000     2.0000 </r>
       <r>   -14.8591     0.0000     2.0000 </r>
       <r>   -14.7805     0.0000     2.0000 </r>
       <r>   -14.7019     0.0000     2.0000 </r>
       <r>   -14.6232     0.0000     2.0000 </r>
       <r>   -14.5446     0.0000     2.0000 </r>
       <r>   -14.4660     0.0000     2.0000 </r>
       <r>   -14.3874     0.0005     2.0000 </r>
       <r>   -14.3088     0.0045     2.0004 </r>
       <r>   -14.2301     0.0307     2.0028 </r>
       <r>   -14.1515     0.1553     2.0150 </r>
       <r>   -14.0729     0.5805     2.0607 </r>
       <r>   -13.9943     1.6046     2.1868 </r>
       <r>   -13.9157     3.2812     2.4448 </r>
       <r>   -13.8371     4.9641     2.8350 </r>
       <r>   -13.7584     5.5569     3.2719 </r>
       <r>   -13.6798     4.6029     3.6338 </r>
       <r>   -13.6012     2.8211     3.8556 </r>
       <r>   -13.5226     1.2792     3.9561 </r>
       <r>   -13.4440     0.4291     3.9899 </r>
       <r>   -13.3654     0.1064     3.9982 </r>
       <r>   -13.2867     0.0195     3.9998 </r>
       <r>   -13.2081     0.0026     4.0000 </r>
       <r>   -13.1295     0.0003     4.0000 </r>
       <r>   -13.0509     0.0000     4.0000 </r>
       <r>   -12.9723     0.0000     4.0000 </r>
       <r>   -12.8937     0.0000     4.0000 </r>
       <r>   -12.8150     0.0000     4.0000 </r>
       <r>   -12.7364     0.0000     4.0000 </r>
       <r>   -12.6578     0.0000     4.0000 </r>
       <r>   -12.5792     0.0000     4.0000 </r>
       <r>   -12.5006     0.0000     4.0000 </r>
       <r>   -12.4219     0.0001     4.0000 </r>
       <r>   -12.3433     0.0008     4.0001 </r>
       <r>   -12.2647     0.0069     4.0006 </r>
       <r>   -12.1861     0.0445     4.0041 </r>
       <r>   -12.1075     0.2108     4.0207 </r>
       <r>   -12.0289     0.7389     4.0788 </r>
       <r>   -11.9502     1.9156     4.2294 </r>
       <r>   -11.8716     3.6743     4.5182 </r>
       <r>   -11.7930     5.2142     4.9282 </r>
       <r>   -11.7144     5.4752     5.3586 </r>
       <r>   -11.6358     4.2542     5.6931 </r>
       <r>   -11.5572     2.4458     5.8853 </r>
       <r>   -11.4785     1.0402     5.9671 </r>
       <r>   -11.3999     0.3273     5.9928 </r>
       <r>   -11.3213     0.0761     5.9988 </r>
       <r>   -11.2427     0.0131     5.9999 </r>
       <r>   -11.1641     0.0017     6.0000 </r>
       <r>   -11.0855     0.0002     6.0000 </r>
       <r>   -11.0068     0.0000     6.0000 </r>
       <r>   -10.9282     0.0000     6.0000 </r>
       <r>   -10.8496     0.0000     6.0000 </r>
       <r>   -10.7710     0.0000     6.0000 </r>
       <r>   -10.6924     0.0000     6.0000 </r>
       <r>   -10.6137     0.0000     6.0000 </r>
       <r>   -10.5351     0.0000     6.0000 </r>
       <r>   -10.4565     0.0000     6.0000 </r>
       <r>   -10.3779     0.0000     6.0000 </r>
       <r>   -10.2993     0.0000     6.0000 </r>
       <r>   -10.2207     0.0000     6.0000 </r>
       <r>   -10.1420     0.0000     6.0000 </r>
       <r>   -10.0634     0.0000     6.0000 </r>
       <r>    -9.9848     0.0000     6.0000 </r>
       <r>    -9.9062     0.0000     6.0000 </r>
       <r>    -9.8276     0.0000     6.0000 </r>
       <r>    -9.7490     0.0000     6.0000 </r>
       <r>    -9.6703     0.0000     6.0000 </r>
       <r>    -9.5917     0.0000     6.0000 </r>
       <r>    -9.5131     0.0000     6.0000 </r>
       <r>    -9.4345     0.0000     6.0000 </r>
       <r>    -9.3559     0.0000     6.0000 </r>
       <r>    -9.2772     0.0000     6.0000 </r>
       <r>    -9.1986     0.0000     6.0000 </r>
       <r>    -9.1200     0.0000     6.0000 </r>
       <r>    -9.0414     0.0000     6.0000 </r>
       <r>    -8.9628     0.0000     6.0000 </r>
       <r>    -8.8842     0.0000     6.0000 </r>
       <r>    -8.8055     0.0000     6.0000 </r>
       <r>    -8.7269     0.0000     6.0000 </r>
       <r>    -8.6483     0.0000     6.0000 </r>
       <r>    -8.5697     0.0000     6.0000 </r>
       <r>    -8.4911     0.0000     6.0000 </r>
       <r>    -8.4125     0.0000     6.0000 </r>
       <r>    -8.3338     0.0000     6.0000 </r>
       <r>    -8.2552     0.0000     6.0000 </r>
       <r>    -8.1766     0.0000     6.0000 </r>
       <r>    -8.0980     0.0000     6.0000 </r>
       <r>    -8.0194     0.0000     6.0000 </r>
       <r>    -7.9408     0.0000     6.0000 </r>
       <r>    -7.8621     0.0000     6.0000 </r>
       <r>    -7.7835     0.0000     6.0000 </r>
       <r>    -7.7049     0.0000     6.0000 </r>
       <r>    -7.6263     0.0000     6.0000 </r>
       <r>    -7.5477     0.0000     6.0000 </r>
       <r>    -7.4690     0.0004     6.0000 </r>
       <r>    -7.3904     0.0040     6.0003 </r>
       <r>    -7.3118     0.0307     6.0028 </r>
       <r>    -7.2332     0.1741     6.0165 </r>
       <r>    -7.1546     0.7298     6.0738 </r>
       <r>    -7.0760     2.2617     6.2516 </r>
       <r>    -6.9973     5.1845     6.6592 </r>
       <r>    -6.9187     8.7923     7.3505 </r>
       <r>    -6.8401    11.0327     8.2178 </r>
       <r>    -6.7615    10.2439     9.0232 </r>
       <r>    -6.6829     7.0380     9.5765 </r>
       <r>    -6.6043     3.5776     9.8577 </r>
       <r>    -6.5256     1.3453     9.9635 </r>
       <r>    -6.4470     0.3741     9.9929 </r>
       <r>    -6.3684     0.0769     9.9990 </r>
       <r>    -6.2898     0.0117     9.9999 </r>
       <r>    -6.2112     0.0013    10.0000 </r>
       <r>    -6.1325     0.0001    10.0000 </r>
       <r>    -6.0539     0.0000    10.0000 </r>
       <r>    -5.9753     0.0000    10.0000 </r>
       <r>    -5.8967     0.0000    10.0000 </r>
       <r>    -5.8181     0.0000    10.0000 </r>
       <r>    -5.7395     0.0000    10.0000 </r>
       <r>    -5.6608     0.0000    10.0000 </r>
       <r>    -5.5822     0.0000    10.0000 </r>
       <r>    -5.5036     0.0000    10.0000 </r>
       <r>    -5.4250     0.0000    10.0000 </r>
       <r>    -5.3464     0.0000    10.0000 </r>
       <r>    -5.2678     0.0000    10.0000 </r>
       <r>    -5.1891     0.0000    10.0000 </r>
       <r>    -5.1105     0.0000    10.0000 </r>
       <r>    -5.0319     0.0000    10.0000 </r>
       <r>    -4.9533     0.0000    10.0000 </r>
       <r>    -4.8747     0.0000    10.0000 </r>
       <r>    -4.7961     0.0000    10.0000 </r>
       <r>    -4.7174     0.0000    10.0000 </r>
       <r>    -4.6388     0.0000    10.0000 </r>
       <r>    -4.5602     0.0000    10.0000 </r>
       <r>    -4.4816     0.0000    10.0000 </r>
       <r>    -4.4030     0.0000    10.0000 </r>
       <r>    -4.3243     0.0000    10.0000 </r>
       <r>    -4.2457     0.0000    10.0000 </r>
       <r>    -4.1671     0.0000    10.0000 </r>
       <r>    -4.0885     0.0000    10.0000 </r>
       <r>    -4.0099     0.0000    10.0000 </r>
       <r>    -3.9313     0.0000    10.0000 </r>
       <r>    -3.8526     0.0000    10.0000 </r>
       <r>    -3.7740     0.0000    10.0000 </r>
       <r>    -3.6954     0.0000    10.0000 </r>
       <r>    -3.6168     0.0000    10.0000 </r>
       <r>    -3.5382     0.0000    10.0000 </r>
       <r>    -3.4596     0.0000    10.0000 </r>
       <r>    -3.3809     0.0000    10.0000 </r>
       <r>    -3.3023     0.0000    10.0000 </r>
       <r>    -3.2237     0.0000    10.0000 </r>
       <r>    -3.1451     0.0000    10.0000 </r>
       <r>    -3.0665     0.0000    10.0000 </r>
       <r>    -2.9878     0.0000    10.0000 </r>
       <r>    -2.9092     0.0000    10.0000 </r>
       <r>    -2.8306     0.0000    10.0000 </r>
       <r>    -2.7520     0.0000    10.0000 </r>
       <r>    -2.6734     0.0000    10.0000 </r>
       <r>    -2.5948     0.0000    10.0000 </r>
       <r>    -2.5161     0.0000    10.0000 </r>
       <r>    -2.4375     0.0000    10.0000 </r>
       <r>    -2.3589     0.0000    10.0000 </r>
       <r>    -2.2803     0.0000    10.0000 </r>
       <r>    -2.2017     0.0000    10.0000 </r>
       <r>    -2.1231     0.0000    10.0000 </r>
       <r>    -2.0444     0.0000    10.0000 </r>
       <r>    -1.9658     0.0000    10.0000 </r>
       <r>    -1.8872     0.0000    10.0000 </r>
       <r>    -1.8086     0.0000    10.0000 </r>
       <r>    -1.7300     0.0000    10.0000 </r>
       <r>    -1.6514     0.0000    10.0000 </r>
       <r>    -1.5727     0.0000    10.0000 </r>
       <r>    -1.4941     0.0000    10.0000 </r>
       <r>    -1.4155     0.0000    10.0000 </r>
       <r>    -1.3369     0.0000    10.0000 </r>
       <r>    -1.2583     0.0000    10.0000 </r>
       <r>    -1.1796     0.0000    10.0000 </r>
       <r>    -1.1010     0.0000    10.0000 </r>
       <r>    -1.0224     0.0001    10.0000 </r>
       <r>    -0.9438     0.0010    10.0001 </r>
       <r>    -0.8652     0.0088    10.0008 </r>
       <r>    -0.7866     0.0543    10.0051 </r>
       <r>    -0.7079     0.2485    10.0246 </r>
       <r>    -0.6293     0.8405    10.0907 </r>
       <r>    -0.5507     2.1047    10.2561 </r>
       <r>    -0.4721     3.9111    10.5636 </r>
       <r>    -0.3935     5.4510    10.9922 </r>
       <r>    -0.3149     5.9495    11.4599 </r>
       <r>    -0.2362     5.8695    11.9213 </r>
       <r>    -0.1576     6.6998    12.4480 </r>
       <r>    -0.0790     8.9777    13.1538 </r>
       <r>    -0.0004    11.0598    14.0233 </r>
       <r>     0.0782    10.7366    14.8674 </r>
       <r>     0.1569     7.8305    15.4830 </r>
       <r>     0.2355     4.2404    15.8164 </r>
       <r>     0.3141     1.7001    15.9501 </r>
       <r>     0.3927     0.5043    15.9897 </r>
       <r>     0.4713     0.1109    15.9984 </r>
       <r>     0.5499     0.0210    16.0001 </r>
       <r>     0.6286     0.0241    16.0020 </r>
       <r>     0.7072     0.1178    16.0112 </r>
       <r>     0.7858     0.4649    16.0478 </r>
       <r>     0.8644     1.3591    16.1546 </r>
       <r>     0.9430     2.9392    16.3857 </r>
       <r>     1.0216     4.7025    16.7554 </r>
       <r>     1.1003     5.5670    17.1931 </r>
       <r>     1.1789     4.8767    17.5765 </r>
       <r>     1.2575     3.1609    17.8250 </r>
       <r>     1.3361     1.5158    17.9441 </r>
       <r>     1.4147     0.5377    17.9864 </r>
       <r>     1.4933     0.1411    17.9975 </r>
       <r>     1.5720     0.0274    17.9997 </r>
       <r>     1.6506     0.0039    18.0000 </r>
       <r>     1.7292     0.0004    18.0000 </r>
       <r>     1.8078     0.0000    18.0000 </r>
       <r>     1.8864     0.0000    18.0000 </r>
       <r>     1.9651     0.0000    18.0000 </r>
       <r>     2.0437     0.0000    18.0000 </r>
       <r>     2.1223     0.0000    18.0000 </r>
       <r>     2.2009     0.0000    18.0000 </r>
       <r>     2.2795     0.0000    18.0000 </r>
       <r>     2.3581     0.0000    18.0000 </r>
       <r>     2.4368     0.0000    18.0000 </r>
       <r>     2.5154     0.0000    18.0000 </r>
       <r>     2.5940     0.0000    18.0000 </r>
       <r>     2.6726     0.0000    18.0000 </r>
       <r>     2.7512     0.0000    18.0000 </r>
       <r>     2.8298     0.0000    18.0000 </r>
       <r>     2.9085     0.0000    18.0000 </r>
       <r>     2.9871     0.0000    18.0000 </r>
       <r>     3.0657     0.0000    18.0000 </r>
      </set>
     </set>
    </array>
   </total>
  </dos>
 </calculation>
 <structure name="finalpos" >
  <crystal>
   <varray name="basis" >
    <v>       8.00000000       0.00000000       0.00000000 </v>
    <v>       0.00000000       8.00000000       0.00000000 </v>
    <v>       0.00000000       0.00000000       8.00000000 </v>
   </varray>
   <i name="volume">    512.00000000 </i>
   <varray name="rec_basis" >
    <v>       0.12500000       0.00000000       0.00000000 </v>
    <v>       0.00000000       0.12500000       0.00000000 </v>
    <v>       0.00000000       0.00000000       0.12500000 </v>
   </varray>
  </crystal>
  <varray name="positions" >
   <v>       0.00000000       0.00000000       0.79059016 </v>
   <v>       0.00000000       0.00000000       0.20940984 </v>
   <v>       0.00000000       0.00000000       0.07547148 </v>
   <v>       0.00000000       0.00000000       0.92452852 </v>
  </varray>
 </structure>
</modeling>
