   4   4   0   0
  0.1280000E+03  0.8000000E-09  0.8000000E-09  0.8000000E-09  0.5000000E-15
  1.000000000000000E-004
  CAR 
 unknown system                          
      3.05928412    -20.26974633  301     -5.88335900      1.00000000
    -20.270  0.0000E+00  0.0000E+00
    -20.192  0.0000E+00  0.0000E+00
    -20.114  0.0000E+00  0.0000E+00
    -20.036  0.0000E+00  0.0000E+00
    -19.959  0.0000E+00  0.0000E+00
    -19.881  0.0000E+00  0.0000E+00
    -19.803  0.0000E+00  0.0000E+00
    -19.725  0.0000E+00  0.0000E+00
    -19.648  0.0000E+00  0.0000E+00
    -19.570  0.0000E+00  0.0000E+00
    -19.492  0.0000E+00  0.0000E+00
    -19.414  0.7138E-15  0.5551E-16
    -19.337  0.5811E-13  0.4574E-14
    -19.259  0.3381E-11  0.2675E-12
    -19.181  0.1463E-09  0.1164E-10
    -19.103  0.4696E-08  0.3768E-09
    -19.026  0.1119E-06  0.9081E-08
    -18.948  0.1982E-05  0.1632E-06
    -18.870  0.2608E-04  0.2191E-05
    -18.792  0.2550E-03  0.2202E-04
    -18.714  0.1855E-02  0.1662E-03
    -18.637  0.1003E-01  0.9463E-03
    -18.559  0.4037E-01  0.4086E-02
    -18.481  0.1209E+00  0.1349E-01
    -18.403  0.2696E+00  0.3445E-01
    -18.326  0.4476E+00  0.6926E-01
    -18.248  0.5532E+00  0.1123E+00
    -18.170  0.5093E+00  0.1519E+00
    -18.092  0.3491E+00  0.1790E+00
    -18.015  0.1782E+00  0.1929E+00
    -17.937  0.6769E-01  0.1981E+00
    -17.859  0.1914E-01  0.1996E+00
    -17.781  0.4029E-02  0.1999E+00
    -17.704  0.6308E-03  0.2000E+00
    -17.626  0.7344E-04  0.2000E+00
    -17.548  0.6357E-05  0.2000E+00
    -17.470  0.4089E-06  0.2000E+00
    -17.392  0.1954E-07  0.2000E+00
    -17.315  0.6934E-09  0.2000E+00
    -17.237  0.1827E-10  0.2000E+00
    -17.159  0.3572E-12  0.2000E+00
    -17.081  0.5140E-14  0.2000E+00
    -17.004  0.0000E+00  0.2000E+00
    -16.926  0.0000E+00  0.2000E+00
    -16.848  0.0000E+00  0.2000E+00
    -16.770  0.0000E+00  0.2000E+00
    -16.693  0.0000E+00  0.2000E+00
    -16.615  0.0000E+00  0.2000E+00
    -16.537  0.0000E+00  0.2000E+00
    -16.459  0.0000E+00  0.2000E+00
    -16.382  0.0000E+00  0.2000E+00
    -16.304  0.0000E+00  0.2000E+00
    -16.226  0.0000E+00  0.2000E+00
    -16.148  0.0000E+00  0.2000E+00
    -16.071  0.0000E+00  0.2000E+00
    -15.993  0.0000E+00  0.2000E+00
    -15.915  0.0000E+00  0.2000E+00
    -15.837  0.0000E+00  0.2000E+00
    -15.759  0.0000E+00  0.2000E+00
    -15.682  0.0000E+00  0.2000E+00
    -15.604  0.0000E+00  0.2000E+00
    -15.526  0.0000E+00  0.2000E+00
    -15.448  0.0000E+00  0.2000E+00
    -15.371  0.0000E+00  0.2000E+00
    -15.293  0.0000E+00  0.2000E+00
    -15.215  0.0000E+00  0.2000E+00
    -15.137  0.0000E+00  0.2000E+00
    -15.060  0.0000E+00  0.2000E+00
    -14.982  0.0000E+00  0.2000E+00
    -14.904  0.0000E+00  0.2000E+00
    -14.826  0.2998E-14  0.2000E+00
    -14.749  0.2103E-12  0.2000E+00
    -14.671  0.1118E-10  0.2000E+00
    -14.593  0.4410E-09  0.2000E+00
    -14.515  0.1291E-07  0.2000E+00
    -14.437  0.2808E-06  0.2000E+00
    -14.360  0.4536E-05  0.2000E+00
    -14.282  0.5445E-04  0.2000E+00
    -14.204  0.4859E-03  0.2000E+00
    -14.126  0.3225E-02  0.2003E+00
    -14.049  0.1592E-01  0.2015E+00
    -13.971  0.5847E-01  0.2061E+00
    -13.893  0.1599E+00  0.2185E+00
    -13.815  0.3254E+00  0.2438E+00
    -13.738  0.4931E+00  0.2822E+00
    -13.660  0.5565E+00  0.3254E+00
    -13.582  0.4677E+00  0.3618E+00
    -13.504  0.2926E+00  0.3846E+00
    -13.427  0.1363E+00  0.3952E+00
    -13.349  0.4729E-01  0.3988E+00
    -13.271  0.1221E-01  0.3998E+00
    -13.193  0.2345E-02  0.4000E+00
    -13.116  0.3350E-03  0.4000E+00
    -13.038  0.3559E-04  0.4000E+00
    -12.960  0.2811E-05  0.4000E+00
    -12.882  0.1649E-06  0.4000E+00
    -12.804  0.7197E-08  0.4000E+00
    -12.727  0.5228E-09  0.4000E+00
    -12.649  0.8805E-08  0.4000E+00
    -12.571  0.1982E-06  0.4000E+00
    -12.493  0.3316E-05  0.4000E+00
    -12.416  0.4123E-04  0.4000E+00
    -12.338  0.3810E-03  0.4000E+00
    -12.260  0.2618E-02  0.4002E+00
    -12.182  0.1339E-01  0.4013E+00
    -12.105  0.5092E-01  0.4052E+00
    -12.027  0.1442E+00  0.4164E+00
    -11.949  0.3038E+00  0.4401E+00
    -11.871  0.4768E+00  0.4771E+00
    -11.794  0.5571E+00  0.5205E+00
    -11.716  0.4848E+00  0.5582E+00
    -11.638  0.3141E+00  0.5826E+00
    -11.560  0.1515E+00  0.5944E+00
    -11.482  0.5442E-01  0.5986E+00
    -11.405  0.1455E-01  0.5997E+00
    -11.327  0.2894E-02  0.6000E+00
    -11.249  0.4282E-03  0.6000E+00
    -11.171  0.4711E-04  0.6000E+00
    -11.094  0.3853E-05  0.6000E+00
    -11.016  0.2342E-06  0.6000E+00
    -10.938  0.1057E-07  0.6000E+00
    -10.860  0.3545E-09  0.6000E+00
    -10.783  0.8824E-11  0.6000E+00
    -10.705  0.1628E-12  0.6000E+00
    -10.627  0.2284E-14  0.6000E+00
    -10.549  0.0000E+00  0.6000E+00
    -10.472  0.0000E+00  0.6000E+00
    -10.394  0.0000E+00  0.6000E+00
    -10.316  0.0000E+00  0.6000E+00
    -10.238  0.0000E+00  0.6000E+00
    -10.160  0.0000E+00  0.6000E+00
    -10.083  0.0000E+00  0.6000E+00
    -10.005  0.0000E+00  0.6000E+00
     -9.927  0.0000E+00  0.6000E+00
     -9.849  0.0000E+00  0.6000E+00
     -9.772  0.0000E+00  0.6000E+00
     -9.694  0.0000E+00  0.6000E+00
     -9.616  0.0000E+00  0.6000E+00
     -9.538  0.0000E+00  0.6000E+00
     -9.461  0.0000E+00  0.6000E+00
     -9.383  0.0000E+00  0.6000E+00
     -9.305  0.0000E+00  0.6000E+00
     -9.227  0.0000E+00  0.6000E+00
     -9.150  0.0000E+00  0.6000E+00
     -9.072  0.0000E+00  0.6000E+00
     -8.994  0.0000E+00  0.6000E+00
     -8.916  0.0000E+00  0.6000E+00
     -8.839  0.0000E+00  0.6000E+00
     -8.761  0.0000E+00  0.6000E+00
     -8.683  0.0000E+00  0.6000E+00
     -8.605  0.0000E+00  0.6000E+00
     -8.527  0.0000E+00  0.6000E+00
     -8.450  0.0000E+00  0.6000E+00
     -8.372  0.0000E+00  0.6000E+00
     -8.294  0.0000E+00  0.6000E+00
     -8.216  0.0000E+00  0.6000E+00
     -8.139  0.0000E+00  0.6000E+00
     -8.061  0.0000E+00  0.6000E+00
     -7.983  0.4569E-14  0.6000E+00
     -7.905  0.3392E-12  0.6000E+00
     -7.828  0.1830E-10  0.6000E+00
     -7.750  0.7334E-09  0.6000E+00
     -7.672  0.2181E-07  0.6000E+00
     -7.594  0.4817E-06  0.6000E+00
     -7.517  0.7903E-05  0.6000E+00
     -7.439  0.9636E-04  0.6000E+00
     -7.361  0.8733E-03  0.6001E+00
     -7.283  0.5885E-02  0.6005E+00
     -7.205  0.2951E-01  0.6028E+00
     -7.128  0.1101E+00  0.6114E+00
     -7.050  0.3056E+00  0.6352E+00
     -6.972  0.6317E+00  0.6843E+00
     -6.894  0.9721E+00  0.7599E+00
     -6.817  0.1114E+01  0.8465E+00
     -6.739  0.9508E+00  0.9204E+00
     -6.661  0.6042E+00  0.9674E+00
     -6.583  0.2859E+00  0.9897E+00
     -6.506  0.1007E+00  0.9975E+00
     -6.428  0.2640E-01  0.9995E+00
     -6.350  0.5149E-02  0.9999E+00
     -6.272  0.7471E-03  0.1000E+01
     -6.195  0.8061E-04  0.1000E+01
     -6.117  0.6466E-05  0.1000E+01
     -6.039  0.3854E-06  0.1000E+01
     -5.961  0.1706E-07  0.1000E+01
     -5.884  0.5609E-09  0.1000E+01
     -5.806  0.1369E-10  0.1000E+01
     -5.728  0.2478E-12  0.1000E+01
     -5.650  0.3426E-14  0.1000E+01
     -5.572  0.0000E+00  0.1000E+01
     -5.495  0.0000E+00  0.1000E+01
     -5.417  0.0000E+00  0.1000E+01
     -5.339  0.0000E+00  0.1000E+01
     -5.261  0.0000E+00  0.1000E+01
     -5.184  0.0000E+00  0.1000E+01
     -5.106  0.0000E+00  0.1000E+01
     -5.028  0.0000E+00  0.1000E+01
     -4.950  0.0000E+00  0.1000E+01
     -4.873  0.0000E+00  0.1000E+01
     -4.795  0.0000E+00  0.1000E+01
     -4.717  0.0000E+00  0.1000E+01
     -4.639  0.0000E+00  0.1000E+01
     -4.562  0.0000E+00  0.1000E+01
     -4.484  0.0000E+00  0.1000E+01
     -4.406  0.0000E+00  0.1000E+01
     -4.328  0.0000E+00  0.1000E+01
     -4.250  0.0000E+00  0.1000E+01
     -4.173  0.0000E+00  0.1000E+01
     -4.095  0.0000E+00  0.1000E+01
     -4.017  0.0000E+00  0.1000E+01
     -3.939  0.0000E+00  0.1000E+01
     -3.862  0.0000E+00  0.1000E+01
     -3.784  0.0000E+00  0.1000E+01
     -3.706  0.0000E+00  0.1000E+01
     -3.628  0.0000E+00  0.1000E+01
     -3.551  0.0000E+00  0.1000E+01
     -3.473  0.0000E+00  0.1000E+01
     -3.395  0.0000E+00  0.1000E+01
     -3.317  0.0000E+00  0.1000E+01
     -3.240  0.0000E+00  0.1000E+01
     -3.162  0.0000E+00  0.1000E+01
     -3.084  0.0000E+00  0.1000E+01
     -3.006  0.0000E+00  0.1000E+01
     -2.929  0.0000E+00  0.1000E+01
     -2.851  0.0000E+00  0.1000E+01
     -2.773  0.0000E+00  0.1000E+01
     -2.695  0.0000E+00  0.1000E+01
     -2.617  0.0000E+00  0.1000E+01
     -2.540  0.0000E+00  0.1000E+01
     -2.462  0.0000E+00  0.1000E+01
     -2.384  0.0000E+00  0.1000E+01
     -2.306  0.0000E+00  0.1000E+01
     -2.229  0.0000E+00  0.1000E+01
     -2.151  0.0000E+00  0.1000E+01
     -2.073  0.0000E+00  0.1000E+01
     -1.995  0.0000E+00  0.1000E+01
     -1.918  0.0000E+00  0.1000E+01
     -1.840  0.0000E+00  0.1000E+01
     -1.762  0.0000E+00  0.1000E+01
     -1.684  0.0000E+00  0.1000E+01
     -1.607  0.0000E+00  0.1000E+01
     -1.529  0.5711E-15  0.1000E+01
     -1.451  0.4940E-13  0.1000E+01
     -1.373  0.2910E-11  0.1000E+01
     -1.295  0.1273E-09  0.1000E+01
     -1.218  0.4135E-08  0.1000E+01
     -1.140  0.9970E-07  0.1000E+01
     -1.062  0.1786E-05  0.1000E+01
     -0.984  0.2376E-04  0.1000E+01
     -0.907  0.2350E-03  0.1000E+01
     -0.829  0.1729E-02  0.1000E+01
     -0.751  0.9458E-02  0.1001E+01
     -0.673  0.3852E-01  0.1004E+01
     -0.596  0.1169E+00  0.1013E+01
     -0.518  0.2655E+00  0.1034E+01
     -0.440  0.4565E+00  0.1069E+01
     -0.362  0.6159E+00  0.1117E+01
     -0.285  0.7164E+00  0.1173E+01
     -0.207  0.8328E+00  0.1237E+01
     -0.129  0.1019E+01  0.1317E+01
     -0.051  0.1159E+01  0.1407E+01
      0.027  0.1077E+01  0.1491E+01
      0.104  0.7683E+00  0.1550E+01
      0.182  0.4119E+00  0.1582E+01
      0.260  0.1649E+00  0.1595E+01
      0.338  0.4918E-01  0.1599E+01
      0.415  0.1092E-01  0.1600E+01
      0.493  0.1876E-02  0.1600E+01
      0.571  0.8523E-03  0.1600E+01
      0.649  0.4049E-02  0.1600E+01
      0.726  0.1915E-01  0.1602E+01
      0.804  0.6769E-01  0.1607E+01
      0.882  0.1782E+00  0.1621E+01
      0.960  0.3491E+00  0.1648E+01
      1.037  0.5093E+00  0.1688E+01
      1.115  0.5532E+00  0.1731E+01
      1.193  0.4476E+00  0.1766E+01
      1.271  0.2696E+00  0.1787E+01
      1.348  0.1209E+00  0.1796E+01
      1.426  0.4037E-01  0.1799E+01
      1.504  0.1003E-01  0.1800E+01
      1.582  0.1855E-02  0.1800E+01
      1.660  0.2550E-03  0.1800E+01
      1.737  0.2608E-04  0.1800E+01
      1.815  0.1982E-05  0.1800E+01
      1.893  0.1119E-06  0.1800E+01
      1.971  0.4696E-08  0.1800E+01
      2.048  0.1463E-09  0.1800E+01
      2.126  0.3381E-11  0.1800E+01
      2.204  0.5825E-13  0.1800E+01
      2.282  0.5711E-15  0.1800E+01
      2.359  0.0000E+00  0.1800E+01
      2.437  0.0000E+00  0.1800E+01
      2.515  0.0000E+00  0.1800E+01
      2.593  0.0000E+00  0.1800E+01
      2.670  0.0000E+00  0.1800E+01
      2.748  0.0000E+00  0.1800E+01
      2.826  0.0000E+00  0.1800E+01
      2.904  0.0000E+00  0.1800E+01
      2.982  0.0000E+00  0.1800E+01
      3.059  0.0000E+00  0.1800E+01
