    4    4   10    1
  0.1280000E+03  0.8000000E-09  0.8000000E-09  0.8000000E-09  0.5000000E-15
  1.000000000000000E-004
  CAR 
 unknown system                          
   10    1    9
 
  0.0000000E+00  0.0000000E+00  0.0000000E+00  0.1000000E+01
   1      -18.269746
   2      -13.705731
   3      -11.830219
   4       -6.858489
   5       -6.858489
   6       -0.381183
   7       -0.059046
   8       -0.059046
   9        1.059284
