       N       E                     dE             d eps       ncg     rms          rms(c)
DAV:   1     0.475632772565E+02    0.47563E+02   -0.24071E+03    18   0.601E+02
DAV:   2    -0.324273847685E+01   -0.50806E+02   -0.50469E+02    20   0.121E+02
DAV:   3    -0.256953008818E+02   -0.22453E+02   -0.22445E+02    28   0.651E+01
DAV:   4    -0.264256880322E+02   -0.73039E+00   -0.73038E+00    18   0.135E+01
DAV:   5    -0.264323592379E+02   -0.66712E-02   -0.66712E-02    27   0.178E+00    0.858E+00
DAV:   6    -0.235641381165E+02    0.28682E+01   -0.50962E+00    18   0.156E+01    0.390E+00
DAV:   7    -0.229700694499E+02    0.59407E+00   -0.25145E+00    26   0.102E+01    0.141E+00
DAV:   8    -0.229261397632E+02    0.43930E-01   -0.18334E-01    19   0.337E+00    0.410E-01
DAV:   9    -0.229141238391E+02    0.12016E-01   -0.30531E-02    28   0.120E+00    0.160E-01
DAV:  10    -0.229155722187E+02   -0.14484E-02   -0.10373E-02    18   0.592E-01    0.510E-02
DAV:  11    -0.229200425668E+02   -0.44703E-02   -0.25236E-03    18   0.310E-01    0.552E-02
DAV:  12    -0.229247913391E+02   -0.47488E-02   -0.14819E-03    19   0.263E-01    0.141E-02
DAV:  13    -0.229261515473E+02   -0.13602E-02   -0.19331E-04    19   0.934E-02    0.108E-02
DAV:  14    -0.229264977637E+02   -0.34622E-03   -0.72107E-05    18   0.488E-02    0.299E-03
DAV:  15    -0.229266112729E+02   -0.11351E-03   -0.15002E-05    19   0.226E-02    0.198E-03
DAV:  16    -0.229266178269E+02   -0.65540E-05   -0.68799E-07    19   0.497E-03
   1 F= -.22926618E+02 E0= -.22926618E+02  d E =-.229266E+02
       N       E                     dE             d eps       ncg     rms          rms(c)
DAV:   1    -0.224096785441E+02    0.51693E+00   -0.18878E+01    19   0.403E+01    0.181E+00
DAV:   2    -0.223181744944E+02    0.91504E-01   -0.26792E-01    26   0.518E+00    0.926E-01
DAV:   3    -0.222990118536E+02    0.19163E-01   -0.20779E-01    27   0.337E+00    0.301E-01
DAV:   4    -0.222958368384E+02    0.31750E-02   -0.17160E-02    18   0.976E-01    0.116E-01
DAV:   5    -0.222958437882E+02   -0.69498E-05   -0.12340E-03    18   0.278E-01    0.233E-02
DAV:   6    -0.222959188281E+02   -0.75040E-04   -0.21287E-04    19   0.103E-01
   2 F= -.22295919E+02 E0= -.22295919E+02  d E =0.630699E+00
       N       E                     dE             d eps       ncg     rms          rms(c)
DAV:   1    -0.230277076657E+02   -0.73186E+00   -0.16166E+01    18   0.381E+01    0.162E+00
DAV:   2    -0.229488815190E+02    0.78826E-01   -0.21015E-01    26   0.457E+00    0.845E-01
DAV:   3    -0.229317358204E+02    0.17146E-01   -0.13598E-01    18   0.278E+00    0.207E-01
DAV:   4    -0.229319298544E+02   -0.19403E-03   -0.26290E-02    18   0.120E+00    0.177E-01
DAV:   5    -0.229309596067E+02    0.97025E-03   -0.49738E-03    18   0.584E-01    0.180E-02
DAV:   6    -0.229310227917E+02   -0.63185E-04   -0.31850E-04    19   0.169E-01
   3 F= -.22931023E+02 E0= -.22931023E+02  d E =-.440496E-02
