<?xml version="1.0" encoding="ISO-8859-1"?>
<modeling>
 <generator>
  <i name="program" type="string">vasp </i>
  <i name="version" type="string">5.2.12  </i>
  <i name="subversion" type="string">11Nov11 complex                                                      parallel </i>
  <i name="platform" type="string">LinuxIFC </i>
  <i name="date" type="string">2012 11 03 </i>
  <i name="time" type="string">02:06:34 </i>
 </generator>
 <incar>
  <i type="string" name="PREC">normal</i>
  <i type="int" name="IBRION">     2</i>
  <i type="int" name="NSW">    10</i>
  <i name="ENCUT">    500.00000000</i>
  <i type="int" name="ISMEAR">     0</i>
 </incar>
 <kpoints>
  <generation param="Monkhorst-Pack">
   <v type="int" name="divisions">       1        1        1 </v>
   <v name="usershift">      0.00000000       0.00000000       0.00000000 </v>
   <v name="genvec1">      1.00000000       0.00000000       0.00000000 </v>
   <v name="genvec2">      0.00000000       1.00000000       0.00000000 </v>
   <v name="genvec3">      0.00000000       0.00000000       1.00000000 </v>
   <v name="shift">      0.00000000       0.00000000       0.00000000 </v>
  </generation>
  <varray name="kpointlist" >
   <v>       0.00000000       0.00000000       0.00000000 </v>
  </varray>
  <varray name="weights" >
   <v>       1.00000000 </v>
  </varray>
 </kpoints>
 <parameters>
  <separator name="general" >
   <i type="string" name="SYSTEM">unknown system</i>
   <i type="logical" name="LCOMPAT"> F  </i>
  </separator>
  <separator name="electronic" >
   <i type="string" name="PREC">normal</i>
   <i name="ENMAX">    500.00000000</i>
   <i name="ENAUG">    644.87300000</i>
   <i name="EDIFF">      0.00010000</i>
   <i type="int" name="IALGO">    38</i>
   <i type="int" name="IWAVPR">    11</i>
   <i type="int" name="NBANDS">     9</i>
   <i name="NELECT">     10.00000000</i>
   <i type="int" name="TURBO">     0</i>
   <i type="int" name="IRESTART">     0</i>
   <i type="int" name="NREBOOT">     0</i>
   <i type="int" name="NMIN">     0</i>
   <i name="EREF">      0.00000000</i>
   <separator name="electronic smearing" >
    <i type="int" name="ISMEAR">     0</i>
    <i name="SIGMA">      0.20000000</i>
    <i name="KSPACING">      0.50000000</i>
    <i type="logical" name="KGAMMA"> T  </i>
   </separator>
   <separator name="electronic projectors" >
    <i type="logical" name="LREAL"> F  </i>
    <v name="ROPT">      0.00000000      0.00000000</v>
    <i type="int" name="LMAXPAW">  -100</i>
    <i type="int" name="LMAXMIX">     2</i>
    <i type="logical" name="NLSPLINE"> F  </i>
   </separator>
   <separator name="electronic startup" >
    <i type="int" name="ISTART">     0</i>
    <i type="int" name="ICHARG">     2</i>
    <i type="int" name="INIWAV">     1</i>
   </separator>
   <separator name="electronic spin" >
    <i type="int" name="ISPIN">     1</i>
    <i type="logical" name="LNONCOLLINEAR"> F  </i>
    <v name="MAGMOM">      1.00000000      1.00000000      1.00000000      1.00000000</v>
    <i name="NUPDOWN">     -1.00000000</i>
    <i type="logical" name="LSORBIT"> F  </i>
    <v name="SAXIS">      0.00000000      0.00000000      1.00000000</v>
    <i type="logical" name="LSPIRAL"> F  </i>
    <v name="QSPIRAL">      0.00000000      0.00000000      0.00000000</v>
    <i type="logical" name="LZEROZ"> F  </i>
   </separator>
   <separator name="electronic exchange-correlation" >
    <i type="logical" name="LASPH"> F  </i>
    <i type="logical" name="LMETAGGA"> F  </i>
   </separator>
   <separator name="electronic convergence" >
    <i type="int" name="NELM">    60</i>
    <i type="int" name="NELMDL">    -5</i>
    <i type="int" name="NELMIN">     2</i>
    <i name="ENINI">    500.00000000</i>
    <separator name="electronic convergence detail" >
     <i type="logical" name="LDIAG"> T  </i>
     <i type="logical" name="LSUBROT"> T  </i>
     <i name="WEIMIN">      0.00100000</i>
     <i name="EBREAK">      0.00000278</i>
     <i name="DEPER">      0.30000000</i>
     <i type="int" name="NRMM">     4</i>
     <i name="TIME">      0.40000000</i>
    </separator>
   </separator>
   <separator name="electronic mixer" >
    <i name="AMIX">      0.40000000</i>
    <i name="BMIX">      1.00000000</i>
    <i name="AMIN">      0.10000000</i>
    <i name="AMIX_MAG">      1.60000000</i>
    <i name="BMIX_MAG">      1.00000000</i>
    <separator name="electronic mixer details" >
     <i type="int" name="IMIX">     4</i>
     <i type="int" name="MAXMIX">   -45</i>
     <i name="WC">    100.00000000</i>
     <i type="int" name="INIMIX">     1</i>
     <i type="int" name="MIXPRE">     1</i>
     <i type="int" name="MREMOVE">     5</i>
    </separator>
   </separator>
   <separator name="electronic dipolcorrection" >
    <i type="logical" name="LDIPOL"> F  </i>
    <i type="logical" name="LMONO"> F  </i>
    <i type="int" name="IDIPOL">     0</i>
    <i name="EPSILON">      1.00000000</i>
    <v name="DIPOL">   -100.00000000   -100.00000000   -100.00000000</v>
    <i name="EFIELD">      0.00000000</i>
   </separator>
  </separator>
  <separator name="grids" >
   <i type="int" name="NGX">    48</i>
   <i type="int" name="NGY">    48</i>
   <i type="int" name="NGZ">    48</i>
   <i type="int" name="NGXF">    96</i>
   <i type="int" name="NGYF">    96</i>
   <i type="int" name="NGZF">    96</i>
   <i type="logical" name="ADDGRID"> F  </i>
  </separator>
  <separator name="ionic" >
   <i type="int" name="NSW">    10</i>
   <i type="int" name="IBRION">     2</i>
   <i type="int" name="ISIF">     2</i>
   <i name="PSTRESS">      0.00000000</i>
   <i name="EDIFFG">      0.00100000</i>
   <i type="int" name="NFREE">     1</i>
   <i name="POTIM">      0.50000000</i>
   <i name="SMASS">     -3.00000000</i>
   <i name="SCALEE">      1.00000000</i>
  </separator>
  <separator name="ionic md" >
   <i name="TEBEG">      0.00010000</i>
   <i name="TEEND">      0.00010000</i>
   <i type="int" name="NBLOCK">     1</i>
   <i type="int" name="KBLOCK">    10</i>
   <i type="int" name="NPACO">   256</i>
   <i name="APACO">     16.00000000</i>
  </separator>
  <separator name="symmetry" >
   <i type="int" name="ISYM">     2</i>
   <i name="SYMPREC">      0.00001000</i>
  </separator>
  <separator name="dos" >
   <i type="logical" name="LORBIT"> F  </i>
   <v name="RWIGS">     -1.00000000     -1.00000000</v>
   <i type="int" name="NEDOS">   301</i>
   <i name="EMIN">     10.00000000</i>
   <i name="EMAX">    -10.00000000</i>
   <i name="EFERMI">      0.00000000</i>
  </separator>
  <separator name="writing" >
   <i type="int" name="NWRITE">     2</i>
   <i type="logical" name="LWAVE"> T  </i>
   <i type="logical" name="LCHARG"> T  </i>
   <i type="logical" name="LPARD"> F  </i>
   <i type="logical" name="LVTOT"> F  </i>
   <i type="logical" name="LVHAR"> F  </i>
   <i type="logical" name="LELF"> F  </i>
   <i type="logical" name="LOPTICS"> F  </i>
   <v name="STM">      0.00000000      0.00000000      0.00000000      0.00000000      0.00000000      0.00000000      0.00000000</v>
  </separator>
  <separator name="performance" >
   <i type="int" name="NPAR">     1</i>
   <i type="int" name="NSIM">     4</i>
   <i type="int" name="NBLK">    -1</i>
   <i type="logical" name="LPLANE"> T  </i>
   <i type="logical" name="LSCALAPACK"> F  </i>
   <i type="logical" name="LSCAAWARE"> F  </i>
   <i type="logical" name="LSCALU"> F  </i>
   <i type="logical" name="LASYNC"> F  </i>
   <i type="logical" name="LORBITALREAL"> F  </i>
  </separator>
  <separator name="miscellaneous" >
   <i type="int" name="IDIOT">     3</i>
   <i type="logical" name="LMUSIC"> F  </i>
   <v name="POMASS">      1.00000000     12.01100000</v>
   <v name="DARWINR">      0.00000000      0.00000000</v>
   <v name="DARWINV">      1.00000000      1.00000000</v>
   <i type="logical" name="LCORR"> T  </i>
  </separator>
  <i type="logical" name="GGA_COMPAT"> T  </i>
  <i type="logical" name="LBERRY"> F  </i>
  <i type="int" name="ICORELEVEL">     0</i>
  <i type="logical" name="LDAU"> F  </i>
  <i type="int" name="I_CONSTRAINED_M">     0</i>
  <separator name="electronic exchange-correlation" >
   <i type="string" name="GGA">--</i>
   <i type="int" name="VOSKOWN">     0</i>
   <i type="logical" name="LHFCALC"> F  </i>
   <i type="string" name="PRECFOCK"></i>
   <i type="logical" name="LHFONE"> F  </i>
   <i type="logical" name="LRHFCALC"> F  </i>
   <i type="logical" name="LTHOMAS"> F  </i>
   <i type="logical" name="LMODELHF"> F  </i>
   <i name="ENCUT4O">     -1.00000000</i>
   <i type="int" name="EXXOEP">     0</i>
   <i type="int" name="FOURORBIT">     0</i>
   <i name="AEXX">      0.00000000</i>
   <i name="HFALPHA">      0.00000000</i>
   <i name="ALDAX">      1.00000000</i>
   <i name="AGGAX">      1.00000000</i>
   <i name="ALDAC">      1.00000000</i>
   <i name="AGGAC">      1.00000000</i>
   <i type="int" name="NKREDX">     1</i>
   <i type="int" name="NKREDY">     1</i>
   <i type="int" name="NKREDZ">     1</i>
   <i type="logical" name="SHIFTRED"> F  </i>
   <i type="logical" name="ODDONLY"> F  </i>
   <i type="logical" name="EVENONLY"> F  </i>
   <i type="int" name="LMAXFOCK">     0</i>
   <i type="int" name="NMAXFOCKAE">     0</i>
   <i type="logical" name="LFOCKAEDFT"> F  </i>
   <i name="HFSCREEN">      0.00000000</i>
   <i name="HFSCREENC">      0.00000000</i>
  </separator>
  <separator name="vdW DFT" >
   <i type="logical" name="LUSE_VDW"> F  </i>
   <i name="Zab_VDW">     -0.84910000</i>
   <i name="PARAM1">      0.12340000</i>
   <i name="PARAM2">      1.00000000</i>
   <i name="PARAM3">      0.00000000</i>
  </separator>
  <separator name="model GW" >
   <i type="int" name="MODEL_GW">     0</i>
   <i name="MODEL_EPS0">     76.80000000</i>
   <i name="MODEL_ALPHA">      1.00000000</i>
  </separator>
  <separator name="linear response parameters" >
   <i type="logical" name="LEPSILON"> F  </i>
   <i type="logical" name="LRPA"> F  </i>
   <i type="logical" name="LNABLA"> F  </i>
   <i type="logical" name="LVEL"> F  </i>
   <i type="int" name="KINTER">     0</i>
   <i name="CSHIFT">      0.10000000</i>
   <i name="OMEGAMAX">     -1.00000000</i>
  </separator>
  <separator name="orbital magnetization" >
   <i type="logical" name="NUCIND"> F  </i>
   <v name="MAGPOS">      0.00000000      0.00000000      0.00000000</v>
   <i type="logical" name="LNICSALL"> T  </i>
   <i type="logical" name="ORBITALMAG"> F  </i>
   <i type="logical" name="LMAGBLOCH"> F  </i>
   <i type="logical" name="LCHIMAG"> F  </i>
   <i type="logical" name="LGAUGE"> T  </i>
   <i type="int" name="MAGATOM">     0</i>
   <v name="MAGDIPOL">      0.00000000      0.00000000      0.00000000</v>
   <v name="AVECCONST">      0.00000000      0.00000000      0.00000000</v>
  </separator>
  <separator name="response functions" >
   <i type="logical" name="LADDER"> F  </i>
   <i type="logical" name="LHARTREE"> T  </i>
   <i type="int" name="IBSE">     0</i>
   <i type="logical" name="LTCTE"> F  </i>
   <i type="logical" name="LTETE"> F  </i>
   <i type="logical" name="LFXCEPS"> F  </i>
   <i type="logical" name="L2ORDER"> F  </i>
   <i type="logical" name="LUSEW"> F  </i>
   <i name="ENCUTGW">     -2.00000000</i>
   <i name="ENCUTGWSOFT">     -2.00000000</i>
   <i name="ENCUTLF">     -1.00000000</i>
   <i type="int" name="LMAXMP2">    -1</i>
   <i name="SCISSOR">      0.00000000</i>
   <i type="int" name="NOMEGA">     0</i>
   <i type="int" name="NOMEGAR">     0</i>
   <i type="int" name="NBANDSGW">    -1</i>
   <i type="int" name="NBANDSO">    -1</i>
   <i type="int" name="NBANDSV">    -1</i>
   <i name="OPTEMAX">      0.00000000</i>
   <i type="int" name="NELM">     1</i>
   <i type="int" name="DIM">     3</i>
   <i type="int" name="ANTIRES">     0</i>
   <i name="OMEGAMAX">    -30.00000000</i>
   <i name="OMEGATL">   -200.00000000</i>
   <i type="int" name="OMEGAGRID">     0</i>
   <i name="CSHIFT">     -0.10000000</i>
   <i type="logical" name="SELFENERGY"> F  </i>
   <i type="logical" name="LSPECTRAL"> F  </i>
   <i type="logical" name="ODDONLYGW"> F  </i>
   <i type="logical" name="EVENONLYGW"> F  </i>
   <i type="int" name="NKREDLFX">     1</i>
   <i type="int" name="NKREDLFY">     1</i>
   <i type="int" name="NKREDLFZ">     1</i>
   <i type="int" name="MAXMEM">  1800</i>
   <i type="int" name="TELESCOPE">     0</i>
  </separator>
 </parameters>
 <atominfo>
  <atoms>       4 </atoms>
  <types>       2 </types>
  <array name="atoms" >
   <dimension dim="1">ion</dimension>
   <field type="string">element</field>
   <field type="int">atomtype</field>
   <set>
    <rc><c>H </c><c>   1</c></rc>
    <rc><c>H </c><c>   1</c></rc>
    <rc><c>C </c><c>   2</c></rc>
    <rc><c>C </c><c>   2</c></rc>
   </set>
  </array>
  <array name="atomtypes" >
   <dimension dim="1">type</dimension>
   <field type="int">atomspertype</field>
   <field type="string">element</field>
   <field>mass</field>
   <field>valence</field>
   <field type="string">pseudopotential</field>
   <set>
    <rc><c>   2</c><c>H </c><c>      1.00000000</c><c>      1.00000000</c><c> PAW_PBE H 15Jun2001                    </c></rc>
    <rc><c>   2</c><c>C </c><c>     12.01100000</c><c>      4.00000000</c><c> PAW_PBE C 08Apr2002                    </c></rc>
   </set>
  </array>
 </atominfo>
 <structure name="initialpos" >
  <crystal>
   <varray name="basis" >
    <v>       8.00000000       0.00000000       0.00000000 </v>
    <v>       0.00000000       8.00000000       0.00000000 </v>
    <v>       0.00000000       0.00000000       8.00000000 </v>
   </varray>
   <i name="volume">    512.00000000 </i>
   <varray name="rec_basis" >
    <v>       0.12500000       0.00000000       0.00000000 </v>
    <v>       0.00000000       0.12500000       0.00000000 </v>
    <v>       0.00000000       0.00000000       0.12500000 </v>
   </varray>
  </crystal>
  <varray name="positions" >
   <v>       0.00000000       0.00000000       0.79075125 </v>
   <v>       0.00000000       0.00000000       0.20924875 </v>
   <v>       0.00000000       0.00000000       0.07601000 </v>
   <v>       0.00000000       0.00000000       0.92399000 </v>
  </varray>
 </structure>
 <calculation>
  <scstep>
   <time name="dav">    0.60    0.60</time>
   <time name="total">    1.98    2.03</time>
   <energy>
    <i name="alphaZ">      0.89086884 </i>
    <i name="ewald">    102.54077057 </i>
    <i name="hartreedc">   -317.70358761 </i>
    <i name="XCdc">     30.23698362 </i>
    <i name="pawpsdc">     77.22553761 </i>
    <i name="pawaedc">    -79.54451240 </i>
    <i name="eentropy">     -0.00000094 </i>
    <i name="bandstr">    -85.35248554 </i>
    <i name="atom">    319.26970310 </i>
    <i name="e_fr_energy">     47.56327726 </i>
    <i name="e_wo_entrp">     47.56327819 </i>
    <i name="e_0_energy">     47.56327773 </i>
   </energy>
  </scstep>
  <scstep>
   <time name="dav">    0.63    0.63</time>
   <time name="total">    0.63    0.64</time>
   <energy>
    <i name="e_fr_energy">     -3.24273848 </i>
    <i name="e_wo_entrp">     -3.24273848 </i>
    <i name="e_0_energy">     -3.24273848 </i>
   </energy>
  </scstep>
  <scstep>
   <time name="dav">    0.82    0.82</time>
   <time name="total">    0.82    0.83</time>
   <energy>
    <i name="e_fr_energy">    -25.69530088 </i>
    <i name="e_wo_entrp">    -25.69530088 </i>
    <i name="e_0_energy">    -25.69530088 </i>
   </energy>
  </scstep>
  <scstep>
   <time name="dav">    0.59    0.59</time>
   <time name="total">    0.59    0.64</time>
   <energy>
    <i name="e_fr_energy">    -26.42568803 </i>
    <i name="e_wo_entrp">    -26.42568803 </i>
    <i name="e_0_energy">    -26.42568803 </i>
   </energy>
  </scstep>
  <scstep>
   <time name="dav">    0.80    0.80</time>
   <time name="total">    1.02    1.07</time>
   <energy>
    <i name="e_fr_energy">    -26.43235924 </i>
    <i name="e_wo_entrp">    -26.43235924 </i>
    <i name="e_0_energy">    -26.43235924 </i>
   </energy>
  </scstep>
  <scstep>
   <time name="dav">    0.59    0.59</time>
   <time name="total">    2.18    2.37</time>
   <energy>
    <i name="e_fr_energy">    -23.56413812 </i>
    <i name="e_wo_entrp">    -23.56413812 </i>
    <i name="e_0_energy">    -23.56413812 </i>
   </energy>
  </scstep>
  <scstep>
   <time name="dav">    0.78    0.78</time>
   <time name="total">    2.37    2.44</time>
   <energy>
    <i name="e_fr_energy">    -22.97006945 </i>
    <i name="e_wo_entrp">    -22.97006945 </i>
    <i name="e_0_energy">    -22.97006945 </i>
   </energy>
  </scstep>
  <scstep>
   <time name="dav">    0.61    0.61</time>
   <time name="total">    2.19    2.25</time>
   <energy>
    <i name="e_fr_energy">    -22.92613976 </i>
    <i name="e_wo_entrp">    -22.92613976 </i>
    <i name="e_0_energy">    -22.92613976 </i>
   </energy>
  </scstep>
  <scstep>
   <time name="dav">    0.82    0.82</time>
   <time name="total">    2.39    2.44</time>
   <energy>
    <i name="e_fr_energy">    -22.91412384 </i>
    <i name="e_wo_entrp">    -22.91412384 </i>
    <i name="e_0_energy">    -22.91412384 </i>
   </energy>
  </scstep>
  <scstep>
   <time name="dav">    0.59    0.59</time>
   <time name="total">    2.14    2.19</time>
   <energy>
    <i name="e_fr_energy">    -22.91557222 </i>
    <i name="e_wo_entrp">    -22.91557222 </i>
    <i name="e_0_energy">    -22.91557222 </i>
   </energy>
  </scstep>
  <scstep>
   <time name="dav">    0.59    0.59</time>
   <time name="total">    2.13    2.21</time>
   <energy>
    <i name="e_fr_energy">    -22.92004257 </i>
    <i name="e_wo_entrp">    -22.92004257 </i>
    <i name="e_0_energy">    -22.92004257 </i>
   </energy>
  </scstep>
  <scstep>
   <time name="dav">    0.67    0.67</time>
   <time name="total">    2.44    2.54</time>
   <energy>
    <i name="e_fr_energy">    -22.92479134 </i>
    <i name="e_wo_entrp">    -22.92479134 </i>
    <i name="e_0_energy">    -22.92479134 </i>
   </energy>
  </scstep>
  <scstep>
   <time name="dav">    0.71    0.72</time>
   <time name="total">    2.58    2.67</time>
   <energy>
    <i name="e_fr_energy">    -22.92615155 </i>
    <i name="e_wo_entrp">    -22.92615155 </i>
    <i name="e_0_energy">    -22.92615155 </i>
   </energy>
  </scstep>
  <scstep>
   <time name="dav">    0.69    0.69</time>
   <time name="total">    2.63    2.65</time>
   <energy>
    <i name="e_fr_energy">    -22.92649776 </i>
    <i name="e_wo_entrp">    -22.92649776 </i>
    <i name="e_0_energy">    -22.92649776 </i>
   </energy>
  </scstep>
  <scstep>
   <time name="dav">    0.61    0.61</time>
   <time name="total">    2.18    2.20</time>
   <energy>
    <i name="e_fr_energy">    -22.92661127 </i>
    <i name="e_wo_entrp">    -22.92661127 </i>
    <i name="e_0_energy">    -22.92661127 </i>
   </energy>
  </scstep>
  <scstep>
   <time name="dav">    0.64    0.64</time>
   <time name="total">    2.09    2.10</time>
   <energy>
    <i name="alphaZ">      0.89086884 </i>
    <i name="ewald">    102.54077057 </i>
    <i name="hartreedc">   -360.62271392 </i>
    <i name="XCdc">     32.76524724 </i>
    <i name="pawpsdc">    148.29181670 </i>
    <i name="pawaedc">   -150.95894410 </i>
    <i name="eentropy">      0.00000000 </i>
    <i name="bandstr">   -115.10336626 </i>
    <i name="atom">    319.26970310 </i>
    <i name="e_fr_energy">    -22.92661783 </i>
    <i name="e_wo_entrp">    -22.92661783 </i>
    <i name="e_0_energy">    -22.92661783 </i>
   </energy>
  </scstep>
  <parameters_embedded>
   <separator name="dft+d2" >
    <i type="logical" name="LVDW"> F  </i>
   </separator>
  </parameters_embedded>
  <structure>
   <crystal>
    <varray name="basis" >
     <v>       8.00000000       0.00000000       0.00000000 </v>
     <v>       0.00000000       8.00000000       0.00000000 </v>
     <v>       0.00000000       0.00000000       8.00000000 </v>
    </varray>
    <i name="volume">    512.00000000 </i>
    <varray name="rec_basis" >
     <v>       0.12500000       0.00000000       0.00000000 </v>
     <v>       0.00000000       0.12500000       0.00000000 </v>
     <v>       0.00000000       0.00000000       0.12500000 </v>
    </varray>
   </crystal>
   <varray name="positions" >
    <v>       0.00000000       0.00000000       0.79075125 </v>
    <v>       0.00000000       0.00000000       0.20924875 </v>
    <v>       0.00000000       0.00000000       0.07601000 </v>
    <v>       0.00000000       0.00000000       0.92399000 </v>
   </varray>
  </structure>
  <varray name="forces" >
   <v>       0.00000000       0.00000000      -0.17000313 </v>
   <v>       0.00000000       0.00000000       0.17000313 </v>
   <v>       0.00000000       0.00000000      -1.04754916 </v>
   <v>       0.00000000       0.00000000       1.04754916 </v>
  </varray>
  <varray name="stress" >
   <v>      -0.07314674       0.00000000       0.00000000 </v>
   <v>       0.00000000      -0.07314674       0.00000000 </v>
   <v>       0.00000000       0.00000000      -2.39947062 </v>
  </varray>
  <energy>
   <i name="e_fr_energy">    -22.92661783 </i>
   <i name="e_wo_entrp">    -22.92661783 </i>
   <i name="e_0_energy">      0.00000000 </i>
  </energy>
  <time name="totalsc">   35.02   36.22</time>
 </calculation>
 <calculation>
  <scstep>
   <time name="dav">    0.64    0.64</time>
   <time name="total">    2.31    3.43</time>
   <energy>
    <i name="alphaZ">      0.89086884 </i>
    <i name="ewald">    114.72685196 </i>
    <i name="hartreedc">   -367.80953155 </i>
    <i name="XCdc">     32.98876331 </i>
    <i name="pawpsdc">    148.28969346 </i>
    <i name="pawaedc">   -150.95674975 </i>
    <i name="eentropy">      0.00000000 </i>
    <i name="bandstr">   -119.80927793 </i>
    <i name="atom">    319.26970310 </i>
    <i name="e_fr_energy">    -22.40967854 </i>
    <i name="e_wo_entrp">    -22.40967854 </i>
    <i name="e_0_energy">    -22.40967854 </i>
   </energy>
  </scstep>
  <scstep>
   <time name="dav">    0.81    0.81</time>
   <time name="total">    2.52    3.38</time>
   <energy>
    <i name="e_fr_energy">    -22.31817449 </i>
    <i name="e_wo_entrp">    -22.31817449 </i>
    <i name="e_0_energy">    -22.31817449 </i>
   </energy>
  </scstep>
  <scstep>
   <time name="dav">    0.83    0.83</time>
   <time name="total">    2.54    3.55</time>
   <energy>
    <i name="e_fr_energy">    -22.29901185 </i>
    <i name="e_wo_entrp">    -22.29901185 </i>
    <i name="e_0_energy">    -22.29901185 </i>
   </energy>
  </scstep>
  <scstep>
   <time name="dav">    0.62    0.62</time>
   <time name="total">    2.32    2.34</time>
   <energy>
    <i name="e_fr_energy">    -22.29583684 </i>
    <i name="e_wo_entrp">    -22.29583684 </i>
    <i name="e_0_energy">    -22.29583684 </i>
   </energy>
  </scstep>
  <scstep>
   <time name="dav">    0.61    0.61</time>
   <time name="total">    2.31    2.33</time>
   <energy>
    <i name="e_fr_energy">    -22.29584379 </i>
    <i name="e_wo_entrp">    -22.29584379 </i>
    <i name="e_0_energy">    -22.29584379 </i>
   </energy>
  </scstep>
  <scstep>
   <time name="dav">    0.63    0.63</time>
   <time name="total">    2.09    2.11</time>
   <energy>
    <i name="alphaZ">      0.89086884 </i>
    <i name="ewald">    114.72685196 </i>
    <i name="hartreedc">   -372.54734282 </i>
    <i name="XCdc">     33.20676462 </i>
    <i name="pawpsdc">    164.82359703 </i>
    <i name="pawaedc">   -167.57896829 </i>
    <i name="eentropy">      0.00000000 </i>
    <i name="bandstr">   -115.08739327 </i>
    <i name="atom">    319.26970310 </i>
    <i name="e_fr_energy">    -22.29591883 </i>
    <i name="e_wo_entrp">    -22.29591883 </i>
    <i name="e_0_energy">    -22.29591883 </i>
   </energy>
  </scstep>
  <structure>
   <crystal>
    <varray name="basis" >
     <v>       8.00000000       0.00000000       0.00000000 </v>
     <v>       0.00000000       8.00000000       0.00000000 </v>
     <v>       0.00000000       0.00000000       8.00000000 </v>
    </varray>
    <i name="volume">    512.00000000 </i>
    <varray name="rec_basis" >
     <v>       0.12500000       0.00000000       0.00000000 </v>
     <v>       0.00000000       0.12500000       0.00000000 </v>
     <v>       0.00000000       0.00000000       0.12500000 </v>
    </varray>
   </crystal>
   <varray name="positions" >
    <v>       0.00000000       0.00000000       0.78972607 </v>
    <v>       0.00000000       0.00000000       0.21027393 </v>
    <v>       0.00000000       0.00000000       0.06969293 </v>
    <v>       0.00000000       0.00000000       0.93030707 </v>
   </varray>
  </structure>
  <varray name="forces" >
   <v>       0.00000000       0.00000000       1.85378314 </v>
   <v>       0.00000000       0.00000000      -1.85378314 </v>
   <v>       0.00000000       0.00000000      14.32951662 </v>
   <v>       0.00000000       0.00000000     -14.32951662 </v>
  </varray>
  <varray name="stress" >
   <v>       0.18481240       0.00000000       0.00000000 </v>
   <v>       0.00000000       0.18481240       0.00000000 </v>
   <v>       0.00000000       0.00000000      30.49306616 </v>
  </varray>
  <energy>
   <i name="e_fr_energy">    -22.29591883 </i>
   <i name="e_wo_entrp">    -22.29591883 </i>
   <i name="e_0_energy">      0.00000000 </i>
  </energy>
  <time name="totalsc">   17.14   20.22</time>
 </calculation>
 <calculation>
  <scstep>
   <time name="dav">    0.58    0.58</time>
   <time name="total">    2.21    2.22</time>
   <energy>
    <i name="alphaZ">      0.89086884 </i>
    <i name="ewald">    103.43081135 </i>
    <i name="hartreedc">   -365.77807480 </i>
    <i name="XCdc">     32.99196808 </i>
    <i name="pawpsdc">    165.06751576 </i>
    <i name="pawaedc">   -167.82445891 </i>
    <i name="eentropy">      0.00000000 </i>
    <i name="bandstr">   -111.07604108 </i>
    <i name="atom">    319.26970310 </i>
    <i name="e_fr_energy">    -23.02770767 </i>
    <i name="e_wo_entrp">    -23.02770767 </i>
    <i name="e_0_energy">    -23.02770767 </i>
   </energy>
  </scstep>
  <scstep>
   <time name="dav">    0.84    0.84</time>
   <time name="total">    2.56    2.56</time>
   <energy>
    <i name="e_fr_energy">    -22.94888152 </i>
    <i name="e_wo_entrp">    -22.94888152 </i>
    <i name="e_0_energy">    -22.94888152 </i>
   </energy>
  </scstep>
  <scstep>
   <time name="dav">    0.68    0.69</time>
   <time name="total">    2.40    2.42</time>
   <energy>
    <i name="e_fr_energy">    -22.93173582 </i>
    <i name="e_wo_entrp">    -22.93173582 </i>
    <i name="e_0_energy">    -22.93173582 </i>
   </energy>
  </scstep>
  <scstep>
   <time name="dav">    0.64    0.64</time>
   <time name="total">    2.29    2.31</time>
   <energy>
    <i name="e_fr_energy">    -22.93192985 </i>
    <i name="e_wo_entrp">    -22.93192985 </i>
    <i name="e_0_energy">    -22.93192985 </i>
   </energy>
  </scstep>
  <scstep>
   <time name="dav">    0.64    0.64</time>
   <time name="total">    2.29    2.31</time>
   <energy>
    <i name="e_fr_energy">    -22.93095961 </i>
    <i name="e_wo_entrp">    -22.93095961 </i>
    <i name="e_0_energy">    -22.93095961 </i>
   </energy>
  </scstep>
  <scstep>
   <time name="dav">    0.66    0.66</time>
   <time name="total">    2.07    2.08</time>
   <energy>
    <i name="alphaZ">      0.89086884 </i>
    <i name="ewald">    103.43081135 </i>
    <i name="hartreedc">   -361.60443873 </i>
    <i name="XCdc">     32.79923350 </i>
    <i name="pawpsdc">    149.43532530 </i>
    <i name="pawaedc">   -152.10717960 </i>
    <i name="eentropy">      0.00000000 </i>
    <i name="bandstr">   -115.04534656 </i>
    <i name="atom">    319.26970310 </i>
    <i name="e_fr_energy">    -22.93102279 </i>
    <i name="e_wo_entrp">    -22.93102279 </i>
    <i name="e_0_energy">    -22.93102279 </i>
   </energy>
  </scstep>
  <structure>
   <crystal>
    <varray name="basis" >
     <v>       8.00000000       0.00000000       0.00000000 </v>
     <v>       0.00000000       8.00000000       0.00000000 </v>
     <v>       0.00000000       0.00000000       8.00000000 </v>
    </varray>
    <i name="volume">    512.00000000 </i>
    <varray name="rec_basis" >
     <v>       0.12500000       0.00000000       0.00000000 </v>
     <v>       0.00000000       0.12500000       0.00000000 </v>
     <v>       0.00000000       0.00000000       0.12500000 </v>
    </varray>
   </crystal>
   <varray name="positions" >
    <v>       0.00000000       0.00000000       0.79066482 </v>
    <v>       0.00000000       0.00000000       0.20933518 </v>
    <v>       0.00000000       0.00000000       0.07547740 </v>
    <v>       0.00000000       0.00000000       0.92452260 </v>
   </varray>
  </structure>
  <varray name="forces" >
   <v>       0.00000000       0.00000000       0.02727771 </v>
   <v>       0.00000000       0.00000000      -0.02727771 </v>
   <v>       0.00000000       0.00000000       0.00160330 </v>
   <v>       0.00000000       0.00000000      -0.00160330 </v>
  </varray>
  <varray name="stress" >
   <v>      -0.04822947       0.00000000       0.00000000 </v>
   <v>       0.00000000      -0.04822947       0.00000000 </v>
   <v>       0.00000000       0.00000000      -0.45448196 </v>
  </varray>
  <energy>
   <i name="e_fr_energy">    -22.93102279 </i>
   <i name="e_wo_entrp">    -22.93102279 </i>
   <i name="e_0_energy">      0.00000000 </i>
  </energy>
  <time name="totalsc">   16.61   18.82</time>
  <eigenvalues>
   <array>
    <dimension dim="1">band</dimension>
    <dimension dim="2">kpoint</dimension>
    <dimension dim="3">spin</dimension>
    <field>eigene</field>
    <field>occ</field>
    <set>
     <set comment="spin 1">
      <set comment="kpoint 1">
       <r>  -18.2697    1.0000 </r>
       <r>  -13.7057    1.0000 </r>
       <r>  -11.8302    1.0000 </r>
       <r>   -6.8585    1.0000 </r>
       <r>   -6.8585    1.0000 </r>
       <r>   -0.3812    0.0000 </r>
       <r>   -0.0590    0.0000 </r>
       <r>   -0.0590    0.0000 </r>
       <r>    1.0593    0.0000 </r>
      </set>
     </set>
    </set>
   </array>
  </eigenvalues>
  <separator name="orbital magnetization" >
   <v name="MAGDIPOLOUT">      0.00000000      0.00000000      0.00000000</v>
  </separator>
  <dos>
   <i name="efermi">     -5.88335900 </i>
   <total>
    <array>
     <dimension dim="1">gridpoints</dimension>
     <dimension dim="2">spin</dimension>
     <field>energy</field>
     <field>total</field>
     <field>integrated</field>
     <set>
      <set comment="spin 1">
       <r>   -20.2697     0.0000     0.0000 </r>
       <r>   -20.1920     0.0000     0.0000 </r>
       <r>   -20.1142     0.0000     0.0000 </r>
       <r>   -20.0365     0.0000     0.0000 </r>
       <r>   -19.9587     0.0000     0.0000 </r>
       <r>   -19.8809     0.0000     0.0000 </r>
       <r>   -19.8032     0.0000     0.0000 </r>
       <r>   -19.7254     0.0000     0.0000 </r>
       <r>   -19.6476     0.0000     0.0000 </r>
       <r>   -19.5699     0.0000     0.0000 </r>
       <r>   -19.4921     0.0000     0.0000 </r>
       <r>   -19.4143     0.0000     0.0000 </r>
       <r>   -19.3366     0.0000     0.0000 </r>
       <r>   -19.2588     0.0000     0.0000 </r>
       <r>   -19.1811     0.0000     0.0000 </r>
       <r>   -19.1033     0.0000     0.0000 </r>
       <r>   -19.0255     0.0000     0.0000 </r>
       <r>   -18.9478     0.0000     0.0000 </r>
       <r>   -18.8700     0.0003     0.0000 </r>
       <r>   -18.7922     0.0026     0.0002 </r>
       <r>   -18.7145     0.0185     0.0017 </r>
       <r>   -18.6367     0.1003     0.0095 </r>
       <r>   -18.5590     0.4037     0.0409 </r>
       <r>   -18.4812     1.2092     0.1349 </r>
       <r>   -18.4034     2.6960     0.3445 </r>
       <r>   -18.3257     4.4755     0.6926 </r>
       <r>   -18.2479     5.5324     1.1228 </r>
       <r>   -18.1701     5.0925     1.5188 </r>
       <r>   -18.0924     3.4907     1.7902 </r>
       <r>   -18.0146     1.7816     1.9288 </r>
       <r>   -17.9368     0.6769     1.9814 </r>
       <r>   -17.8591     0.1914     1.9963 </r>
       <r>   -17.7813     0.0403     1.9994 </r>
       <r>   -17.7036     0.0063     1.9999 </r>
       <r>   -17.6258     0.0007     2.0000 </r>
       <r>   -17.5480     0.0001     2.0000 </r>
       <r>   -17.4703     0.0000     2.0000 </r>
       <r>   -17.3925     0.0000     2.0000 </r>
       <r>   -17.3147     0.0000     2.0000 </r>
       <r>   -17.2370     0.0000     2.0000 </r>
       <r>   -17.1592     0.0000     2.0000 </r>
       <r>   -17.0814     0.0000     2.0000 </r>
       <r>   -17.0037     0.0000     2.0000 </r>
       <r>   -16.9259     0.0000     2.0000 </r>
       <r>   -16.8482     0.0000     2.0000 </r>
       <r>   -16.7704     0.0000     2.0000 </r>
       <r>   -16.6926     0.0000     2.0000 </r>
       <r>   -16.6149     0.0000     2.0000 </r>
       <r>   -16.5371     0.0000     2.0000 </r>
       <r>   -16.4593     0.0000     2.0000 </r>
       <r>   -16.3816     0.0000     2.0000 </r>
       <r>   -16.3038     0.0000     2.0000 </r>
       <r>   -16.2260     0.0000     2.0000 </r>
       <r>   -16.1483     0.0000     2.0000 </r>
       <r>   -16.0705     0.0000     2.0000 </r>
       <r>   -15.9928     0.0000     2.0000 </r>
       <r>   -15.9150     0.0000     2.0000 </r>
       <r>   -15.8372     0.0000     2.0000 </r>
       <r>   -15.7595     0.0000     2.0000 </r>
       <r>   -15.6817     0.0000     2.0000 </r>
       <r>   -15.6039     0.0000     2.0000 </r>
       <r>   -15.5262     0.0000     2.0000 </r>
       <r>   -15.4484     0.0000     2.0000 </r>
       <r>   -15.3706     0.0000     2.0000 </r>
       <r>   -15.2929     0.0000     2.0000 </r>
       <r>   -15.2151     0.0000     2.0000 </r>
       <r>   -15.1374     0.0000     2.0000 </r>
       <r>   -15.0596     0.0000     2.0000 </r>
       <r>   -14.9818     0.0000     2.0000 </r>
       <r>   -14.9041     0.0000     2.0000 </r>
       <r>   -14.8263     0.0000     2.0000 </r>
       <r>   -14.7485     0.0000     2.0000 </r>
       <r>   -14.6708     0.0000     2.0000 </r>
       <r>   -14.5930     0.0000     2.0000 </r>
       <r>   -14.5153     0.0000     2.0000 </r>
       <r>   -14.4375     0.0000     2.0000 </r>
       <r>   -14.3597     0.0000     2.0000 </r>
       <r>   -14.2820     0.0005     2.0000 </r>
       <r>   -14.2042     0.0049     2.0004 </r>
       <r>   -14.1264     0.0322     2.0029 </r>
       <r>   -14.0487     0.1592     2.0153 </r>
       <r>   -13.9709     0.5847     2.0608 </r>
       <r>   -13.8931     1.5987     2.1851 </r>
       <r>   -13.8154     3.2539     2.4381 </r>
       <r>   -13.7376     4.9313     2.8216 </r>
       <r>   -13.6599     5.5650     3.2544 </r>
       <r>   -13.5821     4.6766     3.6180 </r>
       <r>   -13.5043     2.9264     3.8456 </r>
       <r>   -13.4266     1.3634     3.9516 </r>
       <r>   -13.3488     0.4729     3.9884 </r>
       <r>   -13.2710     0.1221     3.9979 </r>
       <r>   -13.1933     0.0234     3.9997 </r>
       <r>   -13.1155     0.0034     4.0000 </r>
       <r>   -13.0377     0.0004     4.0000 </r>
       <r>   -12.9600     0.0000     4.0000 </r>
       <r>   -12.8822     0.0000     4.0000 </r>
       <r>   -12.8045     0.0000     4.0000 </r>
       <r>   -12.7267     0.0000     4.0000 </r>
       <r>   -12.6489     0.0000     4.0000 </r>
       <r>   -12.5712     0.0000     4.0000 </r>
       <r>   -12.4934     0.0000     4.0000 </r>
       <r>   -12.4156     0.0004     4.0000 </r>
       <r>   -12.3379     0.0038     4.0003 </r>
       <r>   -12.2601     0.0262     4.0024 </r>
       <r>   -12.1823     0.1339     4.0128 </r>
       <r>   -12.1046     0.5092     4.0524 </r>
       <r>   -12.0268     1.4415     4.1645 </r>
       <r>   -11.9491     3.0381     4.4007 </r>
       <r>   -11.8713     4.7676     4.7715 </r>
       <r>   -11.7935     5.5710     5.2047 </r>
       <r>   -11.7158     4.8476     5.5817 </r>
       <r>   -11.6380     3.1410     5.8259 </r>
       <r>   -11.5602     1.5153     5.9437 </r>
       <r>   -11.4825     0.5442     5.9861 </r>
       <r>   -11.4047     0.1455     5.9974 </r>
       <r>   -11.3270     0.0289     5.9996 </r>
       <r>   -11.2492     0.0043     6.0000 </r>
       <r>   -11.1714     0.0005     6.0000 </r>
       <r>   -11.0937     0.0000     6.0000 </r>
       <r>   -11.0159     0.0000     6.0000 </r>
       <r>   -10.9381     0.0000     6.0000 </r>
       <r>   -10.8604     0.0000     6.0000 </r>
       <r>   -10.7826     0.0000     6.0000 </r>
       <r>   -10.7048     0.0000     6.0000 </r>
       <r>   -10.6271     0.0000     6.0000 </r>
       <r>   -10.5493     0.0000     6.0000 </r>
       <r>   -10.4716     0.0000     6.0000 </r>
       <r>   -10.3938     0.0000     6.0000 </r>
       <r>   -10.3160     0.0000     6.0000 </r>
       <r>   -10.2383     0.0000     6.0000 </r>
       <r>   -10.1605     0.0000     6.0000 </r>
       <r>   -10.0827     0.0000     6.0000 </r>
       <r>   -10.0050     0.0000     6.0000 </r>
       <r>    -9.9272     0.0000     6.0000 </r>
       <r>    -9.8494     0.0000     6.0000 </r>
       <r>    -9.7717     0.0000     6.0000 </r>
       <r>    -9.6939     0.0000     6.0000 </r>
       <r>    -9.6162     0.0000     6.0000 </r>
       <r>    -9.5384     0.0000     6.0000 </r>
       <r>    -9.4606     0.0000     6.0000 </r>
       <r>    -9.3829     0.0000     6.0000 </r>
       <r>    -9.3051     0.0000     6.0000 </r>
       <r>    -9.2273     0.0000     6.0000 </r>
       <r>    -9.1496     0.0000     6.0000 </r>
       <r>    -9.0718     0.0000     6.0000 </r>
       <r>    -8.9940     0.0000     6.0000 </r>
       <r>    -8.9163     0.0000     6.0000 </r>
       <r>    -8.8385     0.0000     6.0000 </r>
       <r>    -8.7608     0.0000     6.0000 </r>
       <r>    -8.6830     0.0000     6.0000 </r>
       <r>    -8.6052     0.0000     6.0000 </r>
       <r>    -8.5275     0.0000     6.0000 </r>
       <r>    -8.4497     0.0000     6.0000 </r>
       <r>    -8.3719     0.0000     6.0000 </r>
       <r>    -8.2942     0.0000     6.0000 </r>
       <r>    -8.2164     0.0000     6.0000 </r>
       <r>    -8.1387     0.0000     6.0000 </r>
       <r>    -8.0609     0.0000     6.0000 </r>
       <r>    -7.9831     0.0000     6.0000 </r>
       <r>    -7.9054     0.0000     6.0000 </r>
       <r>    -7.8276     0.0000     6.0000 </r>
       <r>    -7.7498     0.0000     6.0000 </r>
       <r>    -7.6721     0.0000     6.0000 </r>
       <r>    -7.5943     0.0000     6.0000 </r>
       <r>    -7.5165     0.0001     6.0000 </r>
       <r>    -7.4388     0.0010     6.0001 </r>
       <r>    -7.3610     0.0087     6.0008 </r>
       <r>    -7.2833     0.0589     6.0053 </r>
       <r>    -7.2055     0.2951     6.0283 </r>
       <r>    -7.1277     1.1007     6.1139 </r>
       <r>    -7.0500     3.0560     6.3515 </r>
       <r>    -6.9722     6.3167     6.8427 </r>
       <r>    -6.8944     9.7215     7.5987 </r>
       <r>    -6.8167    11.1409     8.4651 </r>
       <r>    -6.7389     9.5075     9.2044 </r>
       <r>    -6.6611     6.0417     9.6742 </r>
       <r>    -6.5834     2.8586     9.8965 </r>
       <r>    -6.5056     1.0069     9.9748 </r>
       <r>    -6.4279     0.2640     9.9953 </r>
       <r>    -6.3501     0.0515     9.9994 </r>
       <r>    -6.2723     0.0075     9.9999 </r>
       <r>    -6.1946     0.0008    10.0000 </r>
       <r>    -6.1168     0.0001    10.0000 </r>
       <r>    -6.0390     0.0000    10.0000 </r>
       <r>    -5.9613     0.0000    10.0000 </r>
       <r>    -5.8835     0.0000    10.0000 </r>
       <r>    -5.8057     0.0000    10.0000 </r>
       <r>    -5.7280     0.0000    10.0000 </r>
       <r>    -5.6502     0.0000    10.0000 </r>
       <r>    -5.5725     0.0000    10.0000 </r>
       <r>    -5.4947     0.0000    10.0000 </r>
       <r>    -5.4169     0.0000    10.0000 </r>
       <r>    -5.3392     0.0000    10.0000 </r>
       <r>    -5.2614     0.0000    10.0000 </r>
       <r>    -5.1836     0.0000    10.0000 </r>
       <r>    -5.1059     0.0000    10.0000 </r>
       <r>    -5.0281     0.0000    10.0000 </r>
       <r>    -4.9503     0.0000    10.0000 </r>
       <r>    -4.8726     0.0000    10.0000 </r>
       <r>    -4.7948     0.0000    10.0000 </r>
       <r>    -4.7171     0.0000    10.0000 </r>
       <r>    -4.6393     0.0000    10.0000 </r>
       <r>    -4.5615     0.0000    10.0000 </r>
       <r>    -4.4838     0.0000    10.0000 </r>
       <r>    -4.4060     0.0000    10.0000 </r>
       <r>    -4.3282     0.0000    10.0000 </r>
       <r>    -4.2505     0.0000    10.0000 </r>
       <r>    -4.1727     0.0000    10.0000 </r>
       <r>    -4.0950     0.0000    10.0000 </r>
       <r>    -4.0172     0.0000    10.0000 </r>
       <r>    -3.9394     0.0000    10.0000 </r>
       <r>    -3.8617     0.0000    10.0000 </r>
       <r>    -3.7839     0.0000    10.0000 </r>
       <r>    -3.7061     0.0000    10.0000 </r>
       <r>    -3.6284     0.0000    10.0000 </r>
       <r>    -3.5506     0.0000    10.0000 </r>
       <r>    -3.4728     0.0000    10.0000 </r>
       <r>    -3.3951     0.0000    10.0000 </r>
       <r>    -3.3173     0.0000    10.0000 </r>
       <r>    -3.2396     0.0000    10.0000 </r>
       <r>    -3.1618     0.0000    10.0000 </r>
       <r>    -3.0840     0.0000    10.0000 </r>
       <r>    -3.0063     0.0000    10.0000 </r>
       <r>    -2.9285     0.0000    10.0000 </r>
       <r>    -2.8507     0.0000    10.0000 </r>
       <r>    -2.7730     0.0000    10.0000 </r>
       <r>    -2.6952     0.0000    10.0000 </r>
       <r>    -2.6174     0.0000    10.0000 </r>
       <r>    -2.5397     0.0000    10.0000 </r>
       <r>    -2.4619     0.0000    10.0000 </r>
       <r>    -2.3842     0.0000    10.0000 </r>
       <r>    -2.3064     0.0000    10.0000 </r>
       <r>    -2.2286     0.0000    10.0000 </r>
       <r>    -2.1509     0.0000    10.0000 </r>
       <r>    -2.0731     0.0000    10.0000 </r>
       <r>    -1.9953     0.0000    10.0000 </r>
       <r>    -1.9176     0.0000    10.0000 </r>
       <r>    -1.8398     0.0000    10.0000 </r>
       <r>    -1.7620     0.0000    10.0000 </r>
       <r>    -1.6843     0.0000    10.0000 </r>
       <r>    -1.6065     0.0000    10.0000 </r>
       <r>    -1.5288     0.0000    10.0000 </r>
       <r>    -1.4510     0.0000    10.0000 </r>
       <r>    -1.3732     0.0000    10.0000 </r>
       <r>    -1.2955     0.0000    10.0000 </r>
       <r>    -1.2177     0.0000    10.0000 </r>
       <r>    -1.1399     0.0000    10.0000 </r>
       <r>    -1.0622     0.0000    10.0000 </r>
       <r>    -0.9844     0.0002    10.0000 </r>
       <r>    -0.9067     0.0024    10.0002 </r>
       <r>    -0.8289     0.0173    10.0015 </r>
       <r>    -0.7511     0.0946    10.0089 </r>
       <r>    -0.6734     0.3852    10.0389 </r>
       <r>    -0.5956     1.1693    10.1298 </r>
       <r>    -0.5178     2.6553    10.3363 </r>
       <r>    -0.4401     4.5646    10.6912 </r>
       <r>    -0.3623     6.1592    11.1702 </r>
       <r>    -0.2845     7.1636    11.7273 </r>
       <r>    -0.2068     8.3282    12.3749 </r>
       <r>    -0.1290    10.1856    13.1670 </r>
       <r>    -0.0513    11.5900    14.0682 </r>
       <r>     0.0265    10.7689    14.9057 </r>
       <r>     0.1043     7.6826    15.5031 </r>
       <r>     0.1820     4.1195    15.8234 </r>
       <r>     0.2598     1.6491    15.9517 </r>
       <r>     0.3376     0.4918    15.9899 </r>
       <r>     0.4153     0.1092    15.9984 </r>
       <r>     0.4931     0.0188    15.9999 </r>
       <r>     0.5709     0.0085    16.0005 </r>
       <r>     0.6486     0.0405    16.0037 </r>
       <r>     0.7264     0.1915    16.0186 </r>
       <r>     0.8041     0.6769    16.0712 </r>
       <r>     0.8819     1.7816    16.2098 </r>
       <r>     0.9597     3.4907    16.4812 </r>
       <r>     1.0374     5.0925    16.8772 </r>
       <r>     1.1152     5.5324    17.3074 </r>
       <r>     1.1930     4.4755    17.6555 </r>
       <r>     1.2707     2.6960    17.8651 </r>
       <r>     1.3485     1.2092    17.9591 </r>
       <r>     1.4263     0.4037    17.9905 </r>
       <r>     1.5040     0.1003    17.9983 </r>
       <r>     1.5818     0.0185    17.9998 </r>
       <r>     1.6595     0.0026    18.0000 </r>
       <r>     1.7373     0.0003    18.0000 </r>
       <r>     1.8151     0.0000    18.0000 </r>
       <r>     1.8928     0.0000    18.0000 </r>
       <r>     1.9706     0.0000    18.0000 </r>
       <r>     2.0484     0.0000    18.0000 </r>
       <r>     2.1261     0.0000    18.0000 </r>
       <r>     2.2039     0.0000    18.0000 </r>
       <r>     2.2816     0.0000    18.0000 </r>
       <r>     2.3594     0.0000    18.0000 </r>
       <r>     2.4372     0.0000    18.0000 </r>
       <r>     2.5149     0.0000    18.0000 </r>
       <r>     2.5927     0.0000    18.0000 </r>
       <r>     2.6705     0.0000    18.0000 </r>
       <r>     2.7482     0.0000    18.0000 </r>
       <r>     2.8260     0.0000    18.0000 </r>
       <r>     2.9038     0.0000    18.0000 </r>
       <r>     2.9815     0.0000    18.0000 </r>
       <r>     3.0593     0.0000    18.0000 </r>
      </set>
     </set>
    </array>
   </total>
  </dos>
 </calculation>
 <structure name="finalpos" >
  <crystal>
   <varray name="basis" >
    <v>       8.00000000       0.00000000       0.00000000 </v>
    <v>       0.00000000       8.00000000       0.00000000 </v>
    <v>       0.00000000       0.00000000       8.00000000 </v>
   </varray>
   <i name="volume">    512.00000000 </i>
   <varray name="rec_basis" >
    <v>       0.12500000       0.00000000       0.00000000 </v>
    <v>       0.00000000       0.12500000       0.00000000 </v>
    <v>       0.00000000       0.00000000       0.12500000 </v>
   </varray>
  </crystal>
  <varray name="positions" >
   <v>       0.00000000       0.00000000       0.79066482 </v>
   <v>       0.00000000       0.00000000       0.20933518 </v>
   <v>       0.00000000       0.00000000       0.07547740 </v>
   <v>       0.00000000       0.00000000       0.92452260 </v>
  </varray>
 </structure>
</modeling>
