 running on    1 nodes
 distr:  one band on    1 nodes,    1 groups
 vasp.5.2.12 11Nov11 complex                                                    
  
 POSCAR found :  2 types and       5 ions
 LDA part: xc-table for Pade appr. of Perdew
 POSCAR, INCAR and KPOINTS ok, starting setup
 WARNING: small aliasing (wrap around) errors must be expected
 FFT: planning ...(           1 )
 WAVECAR not read
 entering main loop
       N       E                     dE             d eps       ncg     rms          rms(c)
DAV:   1     0.456746806581E+02    0.45675E+02   -0.15365E+03    16   0.322E+02
DAV:   2    -0.191972736617E+02   -0.64872E+02   -0.64872E+02    32   0.859E+01
DAV:   3    -0.267204982829E+02   -0.75232E+01   -0.75232E+01    16   0.520E+01
DAV:   4    -0.269392573708E+02   -0.21876E+00   -0.21876E+00    32   0.939E+00
DAV:   5    -0.269392896374E+02   -0.32267E-04   -0.32266E-04    32   0.114E-01    0.806E+00
DAV:   6    -0.243584113040E+02    0.25809E+01   -0.68515E+00    32   0.144E+01    0.377E+00
DAV:   7    -0.238517659109E+02    0.50665E+00   -0.99125E-01    32   0.526E+00    0.176E+00
DAV:   8    -0.237221199098E+02    0.12965E+00   -0.14549E-01    16   0.267E+00    0.231E-01
DAV:   9    -0.237192068103E+02    0.29131E-02   -0.16378E-02    16   0.682E-01    0.113E-01
DAV:  10    -0.237196360156E+02   -0.42921E-03   -0.11562E-03    16   0.210E-01    0.662E-02
DAV:  11    -0.237273014524E+02   -0.76654E-02   -0.25065E-03    16   0.319E-01    0.908E-02
DAV:  12    -0.237289211948E+02   -0.16197E-02   -0.89936E-04    16   0.200E-01    0.241E-02
DAV:  13    -0.237302075642E+02   -0.12864E-02   -0.23055E-04    16   0.950E-02    0.988E-03
DAV:  14    -0.237302469500E+02   -0.39386E-04   -0.27542E-05    16   0.285E-02
   1 F= -.23730247E+02 E0= -.23730247E+02  d E =-.237302E+02
 curvature:   0.00 expect dE= 0.000E+00 dE for cont linesearch  0.000E+00
 trial: gam= 0.00000 g(F)=  0.352E-01 g(S)=  0.000E+00 ort = 0.000E+00 (trialstep = 0.100E+01)
 search vector abs. value=  0.352E-01
 bond charge predicted
       N       E                     dE             d eps       ncg     rms          rms(c)
DAV:   1    -0.237488729791E+02   -0.18665E-01   -0.79656E-01    16   0.739E+00    0.482E-01
DAV:   2    -0.237406540024E+02    0.82190E-02   -0.21800E-02    32   0.926E-01    0.180E-01
DAV:   3    -0.237400544300E+02    0.59957E-03   -0.80983E-03    16   0.476E-01    0.552E-02
DAV:   4    -0.237400743330E+02   -0.19903E-04   -0.74438E-05    24   0.772E-02
   2 F= -.23740074E+02 E0= -.23740074E+02  d E =-.982738E-02
 trial-energy change:   -0.009827  1 .order   -0.009750   -0.035249    0.015750
 step:   0.6912(harm=  0.6912)  dis= 0.00823  next Energy=   -23.742429 (dE=-0.122E-01)
 bond charge predicted
       N       E                     dE             d eps       ncg     rms          rms(c)
DAV:   1    -0.237441089517E+02   -0.40545E-02   -0.84229E-02    16   0.233E+00    0.216E-01
DAV:   2    -0.237424898123E+02    0.16191E-02   -0.43782E-03    24   0.364E-01    0.777E-02
DAV:   3    -0.237423894118E+02    0.10040E-03   -0.14505E-03    16   0.204E-01    0.262E-02
DAV:   4    -0.237423884113E+02    0.10005E-05   -0.18169E-05    32   0.327E-02
   3 F= -.23742388E+02 E0= -.23742388E+02  d E =-.121415E-01
 curvature:  -0.35 expect dE=-0.361E-05 dE for cont linesearch -0.361E-05
 trial: gam=-0.01691 g(F)=  0.104E-04 g(S)=  0.000E+00 ort = 0.607E-03 (trialstep = 0.938E+00)
 search vector abs. value=  0.319E-08
 reached required accuracy - stopping structural energy minimisation
 writing wavefunctions
NPROCS =  1
