unknown system                          
   1.00000000000000     
     8.000000    0.000000    0.000000
     0.000000    8.000000    0.000000
     0.000000    0.000000    8.000000
   H    C 
     4     1
Direct
  0.078640  0.078640  0.078640
  0.921360  0.921360  0.078640
  0.078640  0.921360  0.921360
  0.921360  0.078640  0.921360
  0.000000  0.000000  0.000000
 
   64   64   64
  671.57      713.90      793.50      817.65      738.07      582.44      410.66      269.12      172.79      112.34    
  75.081      50.728      32.345      18.392      10.292      6.9832      4.8864      2.5606      1.3732      1.5502    
  1.2771     0.78256E-01 -.38427     0.38948     0.71911     -.11069     -.57588     0.13728     0.61158     -.72097E-01
 -.60492     0.26176E-01 0.60788     0.26176E-01 -.60492     -.72097E-01 0.61158     0.13728     -.57588     -.11069    
 0.71911     0.38948     -.38427     0.78256E-01  1.2771      1.5502      1.3732      2.5606      4.8864      6.9832    
  10.292      18.392      32.345      50.728      75.081      112.34      172.79      269.12      410.66      582.44    
  738.07      817.65      793.50      713.90      713.90      749.06      812.25      821.04      733.64      576.86    
  406.53      266.93      171.78      111.81      74.637      50.254      31.992      18.283      10.303      6.9458    
  4.8265      2.5672      1.3947      1.5013      1.2158     0.98086E-01 -.33367     0.37142     0.66908     -.95603E-01
 -.52435     0.12813     0.56192     -.65294E-01 -.55358     0.25236E-01 0.55859     0.25236E-01 -.55358     -.65294E-01
 0.56192     0.12813     -.52435     -.95603E-01 0.66908     0.37142     -.33367     0.98086E-01  1.2158      1.5013    
  1.3947      2.5672      4.8265      6.9458      10.303      18.283      31.992      50.254      74.637      111.81    
  171.78      266.93      406.53      576.86      733.64      821.04      812.25      749.06      793.50      812.25    
  838.35      813.85      711.77      555.88      392.20      259.52      168.33      110.01      73.209      48.831    
  30.956      17.937      10.300      6.8311      4.6592      2.5746      1.4427      1.3705      1.0564     0.15024    
 -.20255     0.32439     0.53957     -.56678E-01 -.39148     0.10416     0.43362     -.47608E-01 -.42134     0.21742E-01
 0.42989     0.21742E-01 -.42134     -.47608E-01 0.43362     0.10416     -.39148     -.56678E-01 0.53957     0.32439    
 -.20255     0.15024      1.0564      1.3705      1.4427      2.5746      4.6592      6.8311      10.300      17.937    
  30.956      48.831      73.209      110.01      168.33      259.52      392.20      555.88      711.77      813.85    
  838.35      812.25      817.65      821.04      813.85      763.34      656.36      511.26      364.06      245.06    
  161.42      106.32      70.491      46.430      29.286      17.302      10.191      6.6310      4.4140      2.5529    
  1.4780      1.1966     0.85812     0.21613     -.41131E-01 0.26551     0.37983     -.95608E-02 -.22969     0.73846E-01
 0.27633     -.25892E-01 -.26031     0.15383E-01 0.26975     0.15383E-01 -.26031     -.25892E-01 0.27633     0.73846E-01
 -.22969     -.95608E-02 0.37983     0.26551     -.41131E-01 0.21613     0.85812      1.1966      1.4780      2.5529    
  4.4140      6.6310      10.191      17.302      29.286      46.430      70.491      106.32      161.42      245.06    
  364.06      511.26      656.36      763.34      813.85      821.04      738.07      733.64      711.77      656.36    
  561.62      440.92      321.16      222.33      149.86      99.850      66.028      42.976      27.024      16.322    
  9.8781      6.3343      4.1192      2.4722      1.4636      1.0221     0.68105     0.27458     0.97903E-01 0.21205    
 0.23960     0.28843E-01 -.92661E-01 0.46240E-01 0.14062     -.76836E-02 -.12316     0.82797E-02 0.13051     0.82797E-02
 -.12316     -.76836E-02 0.14062     0.46240E-01 -.92661E-01 0.28843E-01 0.23960     0.21205     0.97903E-01 0.27458    
 0.68105      1.0221      1.4636      2.4722      4.1192      6.3343      9.8781      16.322      27.024      42.976    
  66.028      99.850      149.86      222.33      321.16      440.92      561.62      656.36      711.77      733.64    
  582.44      576.86      555.88      511.26      440.92      354.52      267.48      192.05      133.12      89.962    
  59.485      38.447      24.231      14.981      9.3052      5.9299      3.7875      2.3174      1.3859     0.87672    
 0.55903     0.31107     0.18361     0.17293     0.14536     0.48495E-01 -.94863E-02 0.27096E-01 0.54204E-01 0.26138E-02
 -.38082E-01 0.34548E-02 0.43184E-01 0.34548E-02 -.38082E-01 0.26138E-02 0.54204E-01 0.27096E-01 -.94863E-02 0.48495E-01
 0.14536     0.17293     0.18361     0.31107     0.55903     0.87672      1.3859      2.3174      3.7875      5.9299    
  9.3052      14.981      24.231      38.447      59.485      89.962      133.12      192.05      267.48      354.52    
  440.92      511.26      555.88      576.86      410.66      406.53      392.20      364.06      321.16      267.48    
  210.38      157.05      112.04      76.867      51.039      33.037      21.044      13.336      8.4825      5.4118    
  3.4138      2.0942      1.2586     0.77031     0.49252     0.32232     0.21424     0.14672     0.95277E-01 0.49684E-01
 0.22234E-01 0.17382E-01 0.16184E-01 0.54472E-02 -.29086E-02 0.17194E-02 0.70935E-02 0.17194E-02 -.29086E-02 0.54472E-02
 0.16184E-01 0.17382E-01 0.22234E-01 0.49684E-01 0.95277E-01 0.14672     0.21424     0.32232     0.49252     0.77031    
  1.2586      2.0942      3.4138      5.4118      8.4825      13.336      21.044      33.037      51.039      76.867    
  112.04      157.05      210.38      267.48      321.16      364.06      392.20      406.53      269.12      266.93    
  259.52      245.06      222.33      192.05      157.05      121.37      88.802      61.891      41.526      27.218    
  17.693      11.509      7.4712      4.7849      2.9902      1.8245      1.1086     0.69508     0.46011     0.31379    
 0.20729     0.12627     0.71378E-01 0.40307E-01 0.24088E-01 0.14306E-01 0.79124E-02 0.45132E-02 0.28441E-02 0.15809E-02
 0.97551E-03 0.15809E-02 0.28441E-02 0.45132E-02 0.79124E-02 0.14306E-01 0.24088E-01 0.40307E-01 0.71378E-01 0.12627    
 0.20729     0.31379     0.46011     0.69508      1.1086      1.8245      2.9902      4.7849      7.4712      11.509    
  17.693      27.218      41.526      61.891      88.802      121.37      157.05      192.05      222.33      245.06    
  259.52      266.93      172.79      171.78      168.33      161.42      149.86      133.12      112.04      88.802    
  66.317      47.031      32.158      21.594      14.441      9.6359      6.3489      4.0705      2.5236      1.5370    
 0.95859     0.63408     0.43605     0.29289     0.18314     0.10531     0.56338E-01 0.29635E-01 0.18200E-01 0.13932E-01
 0.94013E-02 0.33889E-02 0.29896E-03 0.17999E-02 0.34218E-02 0.17999E-02 0.29896E-03 0.33889E-02 0.94013E-02 0.13932E-01
 0.18200E-01 0.29635E-01 0.56338E-01 0.10531     0.18314     0.29289     0.43605     0.63408     0.95859      1.5370    
  2.5236      4.0705      6.3489      9.6359      14.441      21.594      32.158      47.031      66.317      88.802    
  112.04      133.12      149.86      161.42      168.33      171.78      112.34      111.81      110.01      106.32    
  99.850      89.962      76.867      61.891      47.031      34.090      23.979      16.645      11.484      7.8233    
  5.1883      3.3115      2.0426      1.2589     0.81881     0.57179     0.40300     0.26367     0.15417     0.82405E-01
 0.42650E-01 0.23224E-01 0.15942E-01 0.13813E-01 0.98737E-02 0.33567E-02 0.61663E-04 0.23259E-02 0.45208E-02 0.23259E-02
 0.61663E-04 0.33567E-02 0.98737E-02 0.13813E-01 0.15942E-01 0.23224E-01 0.42650E-01 0.82405E-01 0.15417     0.26367    
 0.40300     0.57179     0.81881      1.2589      2.0426      3.3115      5.1883      7.8233      11.484      16.645    
  23.979      34.090      47.031      61.891      76.867      89.962      99.850      106.32      110.01      111.81    
  75.081      74.637      73.209      70.491      66.028      59.485      51.039      41.526      32.158      23.979    
  17.474      12.566      8.9008      6.1336      4.0574      2.5695      1.5902      1.0103     0.69121     0.50143    
 0.35561     0.22682     0.12447     0.60476E-01 0.31200E-01 0.21729E-01 0.18137E-01 0.13790E-01 0.82545E-02 0.37805E-02
 0.21593E-02 0.28298E-02 0.34892E-02 0.28298E-02 0.21593E-02 0.37805E-02 0.82545E-02 0.13790E-01 0.18137E-01 0.21729E-01
 0.31200E-01 0.60476E-01 0.12447     0.22682     0.35561     0.50143     0.69121      1.0103      1.5902      2.5695    
  4.0574      6.1336      8.9008      12.566      17.474      23.979      32.158      41.526      51.039      59.485    
  66.028      70.491      73.209      74.637      50.728      50.254      48.831      46.430      42.976      38.447    
  33.037      27.218      21.594      16.645      12.566      9.2989      6.6864      4.6110      3.0268      1.9112    
  1.2062     0.80323     0.57620     0.42480     0.29710     0.18348     0.95357E-01 0.43476E-01 0.24726E-01 0.22892E-01
 0.21268E-01 0.14441E-01 0.71327E-02 0.37601E-02 0.30485E-02 0.23022E-02 0.17376E-02 0.23022E-02 0.30485E-02 0.37601E-02
 0.71327E-02 0.14441E-01 0.21268E-01 0.22892E-01 0.24726E-01 0.43476E-01 0.95357E-01 0.18348     0.29710     0.42480    
 0.57620     0.80323      1.2062      1.9112      3.0268      4.6110      6.6864      9.2989      12.566      16.645    
  21.594      27.218      33.037      38.447      42.976      46.430      48.831      50.254      32.345      31.992    
  30.956      29.286      27.024      24.231      21.044      17.693      14.441      11.484      8.9008      6.6864    
  4.8189      3.3042      2.1626      1.3861     0.91284     0.64222     0.47528     0.34731     0.23420     0.13818    
 0.69551E-01 0.33369E-01 0.23247E-01 0.24096E-01 0.22447E-01 0.15128E-01 0.72634E-02 0.31317E-02 0.17665E-02 0.78853E-03
 0.22132E-03 0.78853E-03 0.17665E-02 0.31317E-02 0.72634E-02 0.15128E-01 0.22447E-01 0.24096E-01 0.23247E-01 0.33369E-01
 0.69551E-01 0.13818     0.23420     0.34731     0.47528     0.64222     0.91284      1.3861      2.1626      3.3042    
  4.8189      6.6864      8.9008      11.484      14.441      17.693      21.044      24.231      27.024      29.286    
  30.956      31.992      18.392      18.283      17.937      17.302      16.322      14.981      13.336      11.509    
  9.6359      7.8233      6.1336      4.6110      3.3042      2.2616      1.5050      1.0095     0.70898     0.52336    
 0.38896     0.27396     0.17423     0.97820E-01 0.50488E-01 0.29292E-01 0.24201E-01 0.23769E-01 0.20714E-01 0.14094E-01
 0.70082E-02 0.23253E-02 0.39769E-03 -.35490E-04 -.68080E-04 -.35490E-04 0.39769E-03 0.23253E-02 0.70082E-02 0.14094E-01
 0.20714E-01 0.23769E-01 0.24201E-01 0.29292E-01 0.50488E-01 0.97820E-01 0.17423     0.27396     0.38896     0.52336    
 0.70898      1.0095      1.5050      2.2616      3.3042      4.6110      6.1336      7.8233      9.6359      11.509    
  13.336      14.981      16.322      17.302      17.937      18.283      10.292      10.303      10.300      10.191    
  9.8781      9.3052      8.4825      7.4712      6.3489      5.1883      4.0574      3.0268      2.1626      1.5050    
  1.0514     0.76040     0.57219     0.43362     0.31426     0.20822     0.12359     0.67890E-01 0.39461E-01 0.28734E-01
 0.25006E-01 0.21594E-01 0.16491E-01 0.10465E-01 0.51551E-02 0.18466E-02 0.75044E-03 0.96225E-03 0.12250E-02 0.96225E-03
 0.75044E-03 0.18466E-02 0.51551E-02 0.10465E-01 0.16491E-01 0.21594E-01 0.25006E-01 0.28734E-01 0.39461E-01 0.67890E-01
 0.12359     0.20822     0.31426     0.43362     0.57219     0.76040      1.0514      1.5050      2.1626      3.0268    
  4.0574      5.1883      6.3489      7.4712      8.4825      9.3052      9.8781      10.191      10.300      10.303    
  6.9832      6.9458      6.8311      6.6310      6.3343      5.9299      5.4118      4.7849      4.0705      3.3115    
  2.5695      1.9112      1.3861      1.0095     0.76040     0.59535     0.46959     0.35478     0.24538     0.15169    
 0.85629E-01 0.49429E-01 0.34644E-01 0.29184E-01 0.24578E-01 0.18161E-01 0.11080E-01 0.54684E-02 0.25505E-02 0.19655E-02
 0.23675E-02 0.27020E-02 0.27792E-02 0.27020E-02 0.23675E-02 0.19655E-02 0.25505E-02 0.54684E-02 0.11080E-01 0.18161E-01
 0.24578E-01 0.29184E-01 0.34644E-01 0.49429E-01 0.85629E-01 0.15169     0.24538     0.35478     0.46959     0.59535    
 0.76040      1.0095      1.3861      1.9112      2.5695      3.3115      4.0705      4.7849      5.4118      5.9299    
  6.3343      6.6310      6.8311      6.9458      4.8864      4.8265      4.6592      4.4140      4.1192      3.7875    
  3.4138      2.9902      2.5236      2.0426      1.5902      1.2062     0.91284     0.70898     0.57219     0.46959    
 0.37333     0.27333     0.17830     0.10407     0.59160E-01 0.39272E-01 0.32696E-01 0.28905E-01 0.22842E-01 0.14388E-01
 0.61848E-02 0.12947E-02 0.75636E-03 0.25869E-02 0.37808E-02 0.34017E-02 0.29116E-02 0.34017E-02 0.37808E-02 0.25869E-02
 0.75636E-03 0.12947E-02 0.61848E-02 0.14388E-01 0.22842E-01 0.28905E-01 0.32696E-01 0.39272E-01 0.59160E-01 0.10407    
 0.17830     0.27333     0.37333     0.46959     0.57219     0.70898     0.91284      1.2062      1.5902      2.0426    
  2.5236      2.9902      3.4138      3.7875      4.1192      4.4140      4.6592      4.8265      2.5606      2.5672    
  2.5746      2.5529      2.4722      2.3174      2.0942      1.8245      1.5370      1.2589      1.0103     0.80323    
 0.64222     0.52336     0.43362     0.35478     0.27333     0.18940     0.11557     0.65081E-01 0.40455E-01 0.32885E-01
 0.30690E-01 0.26835E-01 0.19786E-01 0.10917E-01 0.30003E-02 -.87452E-03 0.17923E-03 0.32612E-02 0.43640E-02 0.28510E-02
 0.16889E-02 0.28510E-02 0.43640E-02 0.32612E-02 0.17923E-03 -.87452E-03 0.30003E-02 0.10917E-01 0.19786E-01 0.26835E-01
 0.30690E-01 0.32885E-01 0.40455E-01 0.65081E-01 0.11557     0.18940     0.27333     0.35478     0.43362     0.52336    
 0.64222     0.80323      1.0103      1.2589      1.5370      1.8245      2.0942      2.3174      2.4722      2.5529    
  2.5746      2.5672      1.3732      1.3947      1.4427      1.4780      1.4636      1.3859      1.2586      1.1086    
 0.95859     0.81881     0.69121     0.57620     0.47528     0.38896     0.31426     0.24538     0.17830     0.11557    
 0.65911E-01 0.36872E-01 0.27190E-01 0.27191E-01 0.26894E-01 0.22528E-01 0.15468E-01 0.78863E-02 0.15515E-02 -.13469E-02
 0.17687E-03 0.34638E-02 0.42927E-02 0.20737E-02 0.51052E-03 0.20737E-02 0.42927E-02 0.34638E-02 0.17687E-03 -.13469E-02
 0.15515E-02 0.78863E-02 0.15468E-01 0.22528E-01 0.26894E-01 0.27191E-01 0.27190E-01 0.36872E-01 0.65911E-01 0.11557    
 0.17830     0.24538     0.31426     0.38896     0.47528     0.57620     0.69121     0.81881     0.95859      1.1086    
  1.2586      1.3859      1.4636      1.4780      1.4427      1.3947      1.5502      1.5013      1.3705      1.1966    
  1.0221     0.87672     0.77031     0.69508     0.63408     0.57179     0.50143     0.42480     0.34731     0.27396    
 0.20822     0.15169     0.10407     0.65081E-01 0.36872E-01 0.22204E-01 0.19442E-01 0.21411E-01 0.20972E-01 0.16490E-01
 0.10550E-01 0.52312E-02 0.10668E-02 -.90177E-03 0.33200E-03 0.30066E-02 0.35901E-02 0.14763E-02 0.97004E-05 0.14763E-02
 0.35901E-02 0.30066E-02 0.33200E-03 -.90177E-03 0.10668E-02 0.52312E-02 0.10550E-01 0.16490E-01 0.20972E-01 0.21411E-01
 0.19442E-01 0.22204E-01 0.36872E-01 0.65081E-01 0.10407     0.15169     0.20822     0.27396     0.34731     0.42480    
 0.50143     0.57179     0.63408     0.69508     0.77031     0.87672      1.0221      1.1966      1.3705      1.5013    
  1.2771      1.2158      1.0564     0.85812     0.68105     0.55903     0.49252     0.46011     0.43605     0.40300    
 0.35561     0.29710     0.23420     0.17423     0.12359     0.85629E-01 0.59160E-01 0.40455E-01 0.27190E-01 0.19442E-01
 0.16740E-01 0.16062E-01 0.14080E-01 0.10241E-01 0.62046E-02 0.30940E-02 0.91793E-03 -.19461E-04 0.73704E-03 0.21538E-02
 0.22094E-02 0.66961E-03 -.32207E-03 0.66961E-03 0.22094E-02 0.21538E-02 0.73704E-03 -.19461E-04 0.91793E-03 0.30940E-02
 0.62046E-02 0.10241E-01 0.14080E-01 0.16062E-01 0.16740E-01 0.19442E-01 0.27190E-01 0.40455E-01 0.59160E-01 0.85629E-01
 0.12359     0.17423     0.23420     0.29710     0.35561     0.40300     0.43605     0.46011     0.49252     0.55903    
 0.68105     0.85812      1.0564      1.2158     0.78256E-01 0.98086E-01 0.15024     0.21613     0.27458     0.31107    
 0.32232     0.31379     0.29289     0.26367     0.22682     0.18348     0.13818     0.97820E-01 0.67890E-01 0.49429E-01
 0.39272E-01 0.32885E-01 0.27191E-01 0.21411E-01 0.16062E-01 0.11652E-01 0.81958E-02 0.54652E-02 0.33139E-02 0.17742E-02
 0.97361E-03 0.91813E-03 0.12491E-02 0.13135E-02 0.70491E-03 -.24128E-03 -.70262E-03 -.24128E-03 0.70491E-03 0.13135E-02
 0.12491E-02 0.91813E-03 0.97361E-03 0.17742E-02 0.33139E-02 0.54652E-02 0.81958E-02 0.11652E-01 0.16062E-01 0.21411E-01
 0.27191E-01 0.32885E-01 0.39272E-01 0.49429E-01 0.67890E-01 0.97820E-01 0.13818     0.18348     0.22682     0.26367    
 0.29289     0.31379     0.32232     0.31107     0.27458     0.21613     0.15024     0.98086E-01 -.38427     -.33367    
 -.20255     -.41131E-01 0.97903E-01 0.18361     0.21424     0.20729     0.18314     0.15417     0.12447     0.95357E-01
 0.69551E-01 0.50488E-01 0.39461E-01 0.34644E-01 0.32696E-01 0.30690E-01 0.26894E-01 0.20972E-01 0.14080E-01 0.81958E-02
 0.45695E-02 0.28437E-02 0.19160E-02 0.13006E-02 0.11677E-02 0.13855E-02 0.13222E-02 0.67896E-03 -.11587E-03 -.57025E-03
 -.67954E-03 -.57025E-03 -.11587E-03 0.67896E-03 0.13222E-02 0.13855E-02 0.11677E-02 0.13006E-02 0.19160E-02 0.28437E-02
 0.45695E-02 0.81958E-02 0.14080E-01 0.20972E-01 0.26894E-01 0.30690E-01 0.32696E-01 0.34644E-01 0.39461E-01 0.50488E-01
 0.69551E-01 0.95357E-01 0.12447     0.15417     0.18314     0.20729     0.21424     0.18361     0.97903E-01 -.41131E-01
 -.20255     -.33367     0.38948     0.37142     0.32439     0.26551     0.21205     0.17293     0.14672     0.12627    
 0.10531     0.82405E-01 0.60476E-01 0.43476E-01 0.33369E-01 0.29292E-01 0.28734E-01 0.29184E-01 0.28905E-01 0.26835E-01
 0.22528E-01 0.16490E-01 0.10241E-01 0.54652E-02 0.28437E-02 0.18145E-02 0.14389E-02 0.12481E-02 0.11799E-02 0.10889E-02
 0.73905E-03 0.18967E-03 -.20929E-03 -.29247E-03 -.26348E-03 -.29247E-03 -.20929E-03 0.18967E-03 0.73905E-03 0.10889E-02
 0.11799E-02 0.12481E-02 0.14389E-02 0.18145E-02 0.28437E-02 0.54652E-02 0.10241E-01 0.16490E-01 0.22528E-01 0.26835E-01
 0.28905E-01 0.29184E-01 0.28734E-01 0.29292E-01 0.33369E-01 0.43476E-01 0.60476E-01 0.82405E-01 0.10531     0.12627    
 0.14672     0.17293     0.21205     0.26551     0.32439     0.37142     0.71911     0.66908     0.53957     0.37983    
 0.23960     0.14536     0.95277E-01 0.71378E-01 0.56338E-01 0.42650E-01 0.31200E-01 0.24726E-01 0.23247E-01 0.24201E-01
 0.25006E-01 0.24578E-01 0.22842E-01 0.19786E-01 0.15468E-01 0.10550E-01 0.62046E-02 0.33139E-02 0.19160E-02 0.14389E-02
 0.12770E-02 0.10860E-02 0.75483E-03 0.32786E-03 -.51268E-04 -.25291E-03 -.27087E-03 -.20796E-03 -.17301E-03 -.20796E-03
 -.27087E-03 -.25291E-03 -.51268E-04 0.32786E-03 0.75483E-03 0.10860E-02 0.12770E-02 0.14389E-02 0.19160E-02 0.33139E-02
 0.62046E-02 0.10550E-01 0.15468E-01 0.19786E-01 0.22842E-01 0.24578E-01 0.25006E-01 0.24201E-01 0.23247E-01 0.24726E-01
 0.31200E-01 0.42650E-01 0.56338E-01 0.71378E-01 0.95277E-01 0.14536     0.23960     0.37983     0.53957     0.66908    
 -.11069     -.95603E-01 -.56678E-01 -.95608E-02 0.28843E-01 0.48495E-01 0.49684E-01 0.40307E-01 0.29635E-01 0.23224E-01
 0.21729E-01 0.22892E-01 0.24096E-01 0.23769E-01 0.21594E-01 0.18161E-01 0.14388E-01 0.10917E-01 0.78863E-02 0.52312E-02
 0.30940E-02 0.17742E-02 0.13006E-02 0.12481E-02 0.10860E-02 0.63228E-03 0.82624E-04 -.32165E-03 -.52951E-03 -.61812E-03
 -.64871E-03 -.64618E-03 -.63925E-03 -.64618E-03 -.64871E-03 -.61812E-03 -.52951E-03 -.32165E-03 0.82624E-04 0.63228E-03
 0.10860E-02 0.12481E-02 0.13006E-02 0.17742E-02 0.30940E-02 0.52312E-02 0.78863E-02 0.10917E-01 0.14388E-01 0.18161E-01
 0.21594E-01 0.23769E-01 0.24096E-01 0.22892E-01 0.21729E-01 0.23224E-01 0.29635E-01 0.40307E-01 0.49684E-01 0.48495E-01
 0.28843E-01 -.95608E-02 -.56678E-01 -.95603E-01 -.57588     -.52435     -.39148     -.22969     -.92661E-01 -.94863E-02
 0.22234E-01 0.24088E-01 0.18200E-01 0.15942E-01 0.18137E-01 0.21268E-01 0.22447E-01 0.20714E-01 0.16491E-01 0.11080E-01
 0.61848E-02 0.30003E-02 0.15515E-02 0.10668E-02 0.91793E-03 0.97361E-03 0.11677E-02 0.11799E-02 0.75483E-03 0.82624E-04
 -.41359E-03 -.58628E-03 -.64355E-03 -.77405E-03 -.92788E-03 -.99893E-03 -.10074E-02 -.99893E-03 -.92788E-03 -.77405E-03
 -.64355E-03 -.58628E-03 -.41359E-03 0.82624E-04 0.75483E-03 0.11799E-02 0.11677E-02 0.97361E-03 0.91793E-03 0.10668E-02
 0.15515E-02 0.30003E-02 0.61848E-02 0.11080E-01 0.16491E-01 0.20714E-01 0.22447E-01 0.21268E-01 0.18137E-01 0.15942E-01
 0.18200E-01 0.24088E-01 0.22234E-01 -.94863E-02 -.92661E-01 -.22969     -.39148     -.52435     0.13728     0.12813    
 0.10416     0.73846E-01 0.46240E-01 0.27096E-01 0.17382E-01 0.14306E-01 0.13932E-01 0.13813E-01 0.13790E-01 0.14441E-01
 0.15128E-01 0.14094E-01 0.10465E-01 0.54684E-02 0.12947E-02 -.87452E-03 -.13469E-02 -.90177E-03 -.19461E-04 0.91813E-03
 0.13855E-02 0.10889E-02 0.32786E-03 -.32165E-03 -.58628E-03 -.60303E-03 -.59501E-03 -.64732E-03 -.74366E-03 -.83983E-03
 -.88143E-03 -.83983E-03 -.74366E-03 -.64732E-03 -.59501E-03 -.60303E-03 -.58628E-03 -.32165E-03 0.32786E-03 0.10889E-02
 0.13855E-02 0.91813E-03 -.19461E-04 -.90177E-03 -.13469E-02 -.87452E-03 0.12947E-02 0.54684E-02 0.10465E-01 0.14094E-01
 0.15128E-01 0.14441E-01 0.13790E-01 0.13813E-01 0.13932E-01 0.14306E-01 0.17382E-01 0.27096E-01 0.46240E-01 0.73846E-01
 0.10416     0.12813     0.61158     0.56192     0.43362     0.27633     0.14062     0.54204E-01 0.16184E-01 0.79124E-02
 0.94013E-02 0.98737E-02 0.82545E-02 0.71327E-02 0.72634E-02 0.70082E-02 0.51551E-02 0.25505E-02 0.75636E-03 0.17923E-03
 0.17687E-03 0.33200E-03 0.73704E-03 0.12491E-02 0.13222E-02 0.73905E-03 -.51268E-04 -.52951E-03 -.64355E-03 -.59501E-03
 -.47960E-03 -.36338E-03 -.39829E-03 -.59849E-03 -.72136E-03 -.59849E-03 -.39829E-03 -.36338E-03 -.47960E-03 -.59501E-03
 -.64355E-03 -.52951E-03 -.51268E-04 0.73905E-03 0.13222E-02 0.12491E-02 0.73704E-03 0.33200E-03 0.17687E-03 0.17923E-03
 0.75636E-03 0.25505E-02 0.51551E-02 0.70082E-02 0.72634E-02 0.71327E-02 0.82545E-02 0.98737E-02 0.94013E-02 0.79124E-02
 0.16184E-01 0.54204E-01 0.14062     0.27633     0.43362     0.56192     -.72097E-01 -.65294E-01 -.47608E-01 -.25892E-01
 -.76836E-02 0.26138E-02 0.54472E-02 0.45132E-02 0.33889E-02 0.33567E-02 0.37805E-02 0.37601E-02 0.31317E-02 0.23253E-02
 0.18466E-02 0.19655E-02 0.25869E-02 0.32612E-02 0.34638E-02 0.30066E-02 0.21538E-02 0.13135E-02 0.67896E-03 0.18967E-03
 -.25291E-03 -.61812E-03 -.77405E-03 -.64732E-03 -.36338E-03 -.20659E-03 -.36719E-03 -.71241E-03 -.89064E-03 -.71241E-03
 -.36719E-03 -.20659E-03 -.36338E-03 -.64732E-03 -.77405E-03 -.61812E-03 -.25291E-03 0.18967E-03 0.67896E-03 0.13135E-02
 0.21538E-02 0.30066E-02 0.34638E-02 0.32612E-02 0.25869E-02 0.19655E-02 0.18466E-02 0.23253E-02 0.31317E-02 0.37601E-02
 0.37805E-02 0.33567E-02 0.33889E-02 0.45132E-02 0.54472E-02 0.26138E-02 -.76836E-02 -.25892E-01 -.47608E-01 -.65294E-01
 -.60492     -.55358     -.42134     -.26031     -.12316     -.38082E-01 -.29086E-02 0.28441E-02 0.29896E-03 0.61663E-04
 0.21593E-02 0.30485E-02 0.17665E-02 0.39769E-03 0.75044E-03 0.23675E-02 0.37808E-02 0.43640E-02 0.42927E-02 0.35901E-02
 0.22094E-02 0.70491E-03 -.11587E-03 -.20929E-03 -.27087E-03 -.64871E-03 -.92788E-03 -.74366E-03 -.39829E-03 -.36719E-03
 -.64588E-03 -.91448E-03 -.10063E-02 -.91448E-03 -.64588E-03 -.36719E-03 -.39829E-03 -.74366E-03 -.92788E-03 -.64871E-03
 -.27087E-03 -.20929E-03 -.11587E-03 0.70491E-03 0.22094E-02 0.35901E-02 0.42927E-02 0.43640E-02 0.37808E-02 0.23675E-02
 0.75044E-03 0.39769E-03 0.17665E-02 0.30485E-02 0.21593E-02 0.61663E-04 0.29896E-03 0.28441E-02 -.29086E-02 -.38082E-01
 -.12316     -.26031     -.42134     -.55358     0.26176E-01 0.25236E-01 0.21742E-01 0.15383E-01 0.82797E-02 0.34548E-02
 0.17194E-02 0.15809E-02 0.17999E-02 0.23259E-02 0.28298E-02 0.23022E-02 0.78853E-03 -.35490E-04 0.96225E-03 0.27020E-02
 0.34017E-02 0.28510E-02 0.20737E-02 0.14763E-02 0.66961E-03 -.24128E-03 -.57025E-03 -.29247E-03 -.20796E-03 -.64618E-03
 -.99893E-03 -.83983E-03 -.59849E-03 -.71241E-03 -.91448E-03 -.85778E-03 -.75488E-03 -.85778E-03 -.91448E-03 -.71241E-03
 -.59849E-03 -.83983E-03 -.99893E-03 -.64618E-03 -.20796E-03 -.29247E-03 -.57025E-03 -.24128E-03 0.66961E-03 0.14763E-02
 0.20737E-02 0.28510E-02 0.34017E-02 0.27020E-02 0.96225E-03 -.35490E-04 0.78853E-03 0.23022E-02 0.28298E-02 0.23259E-02
 0.17999E-02 0.15809E-02 0.17194E-02 0.34548E-02 0.82797E-02 0.15383E-01 0.21742E-01 0.25236E-01 0.60788     0.55859    
 0.42989     0.26975     0.13051     0.43184E-01 0.70935E-02 0.97551E-03 0.34218E-02 0.45208E-02 0.34892E-02 0.17376E-02
 0.22132E-03 -.68080E-04 0.12250E-02 0.27792E-02 0.29116E-02 0.16889E-02 0.51052E-03 0.97004E-05 -.32207E-03 -.70262E-03
 -.67954E-03 -.26348E-03 -.17301E-03 -.63925E-03 -.10074E-02 -.88143E-03 -.72136E-03 -.89064E-03 -.10063E-02 -.75488E-03
 -.54705E-03 -.75488E-03 -.10063E-02 -.89064E-03 -.72136E-03 -.88143E-03 -.10074E-02 -.63925E-03 -.17301E-03 -.26348E-03
 -.67954E-03 -.70262E-03 -.32207E-03 0.97004E-05 0.51052E-03 0.16889E-02 0.29116E-02 0.27792E-02 0.12250E-02 -.68080E-04
 0.22132E-03 0.17376E-02 0.34892E-02 0.45208E-02 0.34218E-02 0.97551E-03 0.70935E-02 0.43184E-01 0.13051     0.26975    
 0.42989     0.55859     0.26176E-01 0.25236E-01 0.21742E-01 0.15383E-01 0.82797E-02 0.34548E-02 0.17194E-02 0.15809E-02
 0.17999E-02 0.23259E-02 0.28298E-02 0.23022E-02 0.78853E-03 -.35490E-04 0.96225E-03 0.27020E-02 0.34017E-02 0.28510E-02
 0.20737E-02 0.14763E-02 0.66961E-03 -.24128E-03 -.57025E-03 -.29247E-03 -.20796E-03 -.64618E-03 -.99893E-03 -.83983E-03
 -.59849E-03 -.71241E-03 -.91448E-03 -.85778E-03 -.75488E-03 -.85778E-03 -.91448E-03 -.71241E-03 -.59849E-03 -.83983E-03
 -.99893E-03 -.64618E-03 -.20796E-03 -.29247E-03 -.57025E-03 -.24128E-03 0.66961E-03 0.14763E-02 0.20737E-02 0.28510E-02
 0.34017E-02 0.27020E-02 0.96225E-03 -.35490E-04 0.78853E-03 0.23022E-02 0.28298E-02 0.23259E-02 0.17999E-02 0.15809E-02
 0.17194E-02 0.34548E-02 0.82797E-02 0.15383E-01 0.21742E-01 0.25236E-01 -.60492     -.55358     -.42134     -.26031    
 -.12316     -.38082E-01 -.29086E-02 0.28441E-02 0.29896E-03 0.61663E-04 0.21593E-02 0.30485E-02 0.17665E-02 0.39769E-03
 0.75044E-03 0.23675E-02 0.37808E-02 0.43640E-02 0.42927E-02 0.35901E-02 0.22094E-02 0.70491E-03 -.11587E-03 -.20929E-03
 -.27087E-03 -.64871E-03 -.92788E-03 -.74366E-03 -.39829E-03 -.36719E-03 -.64588E-03 -.91448E-03 -.10063E-02 -.91448E-03
 -.64588E-03 -.36719E-03 -.39829E-03 -.74366E-03 -.92788E-03 -.64871E-03 -.27087E-03 -.20929E-03 -.11587E-03 0.70491E-03
 0.22094E-02 0.35901E-02 0.42927E-02 0.43640E-02 0.37808E-02 0.23675E-02 0.75044E-03 0.39769E-03 0.17665E-02 0.30485E-02
 0.21593E-02 0.61663E-04 0.29896E-03 0.28441E-02 -.29086E-02 -.38082E-01 -.12316     -.26031     -.42134     -.55358    
 -.72097E-01 -.65294E-01 -.47608E-01 -.25892E-01 -.76836E-02 0.26138E-02 0.54472E-02 0.45132E-02 0.33889E-02 0.33567E-02
 0.37805E-02 0.37601E-02 0.31317E-02 0.23253E-02 0.18466E-02 0.19655E-02 0.25869E-02 0.32612E-02 0.34638E-02 0.30066E-02
 0.21538E-02 0.13135E-02 0.67896E-03 0.18967E-03 -.25291E-03 -.61812E-03 -.77405E-03 -.64732E-03 -.36338E-03 -.20659E-03
 -.36719E-03 -.71241E-03 -.89064E-03 -.71241E-03 -.36719E-03 -.20659E-03 -.36338E-03 -.64732E-03 -.77405E-03 -.61812E-03
 -.25291E-03 0.18967E-03 0.67896E-03 0.13135E-02 0.21538E-02 0.30066E-02 0.34638E-02 0.32612E-02 0.25869E-02 0.19655E-02
 0.18466E-02 0.23253E-02 0.31317E-02 0.37601E-02 0.37805E-02 0.33567E-02 0.33889E-02 0.45132E-02 0.54472E-02 0.26138E-02
 -.76836E-02 -.25892E-01 -.47608E-01 -.65294E-01 0.61158     0.56192     0.43362     0.27633     0.14062     0.54204E-01
 0.16184E-01 0.79124E-02 0.94013E-02 0.98737E-02 0.82545E-02 0.71327E-02 0.72634E-02 0.70082E-02 0.51551E-02 0.25505E-02
 0.75636E-03 0.17923E-03 0.17687E-03 0.33200E-03 0.73704E-03 0.12491E-02 0.13222E-02 0.73905E-03 -.51268E-04 -.52951E-03
 -.64355E-03 -.59501E-03 -.47960E-03 -.36338E-03 -.39829E-03 -.59849E-03 -.72136E-03 -.59849E-03 -.39829E-03 -.36338E-03
 -.47960E-03 -.59501E-03 -.64355E-03 -.52951E-03 -.51268E-04 0.73905E-03 0.13222E-02 0.12491E-02 0.73704E-03 0.33200E-03
 0.17687E-03 0.17923E-03 0.75636E-03 0.25505E-02 0.51551E-02 0.70082E-02 0.72634E-02 0.71327E-02 0.82545E-02 0.98737E-02
 0.94013E-02 0.79124E-02 0.16184E-01 0.54204E-01 0.14062     0.27633     0.43362     0.56192     0.13728     0.12813    
 0.10416     0.73846E-01 0.46240E-01 0.27096E-01 0.17382E-01 0.14306E-01 0.13932E-01 0.13813E-01 0.13790E-01 0.14441E-01
 0.15128E-01 0.14094E-01 0.10465E-01 0.54684E-02 0.12947E-02 -.87452E-03 -.13469E-02 -.90177E-03 -.19461E-04 0.91813E-03
 0.13855E-02 0.10889E-02 0.32786E-03 -.32165E-03 -.58628E-03 -.60303E-03 -.59501E-03 -.64732E-03 -.74366E-03 -.83983E-03
 -.88143E-03 -.83983E-03 -.74366E-03 -.64732E-03 -.59501E-03 -.60303E-03 -.58628E-03 -.32165E-03 0.32786E-03 0.10889E-02
 0.13855E-02 0.91813E-03 -.19461E-04 -.90177E-03 -.13469E-02 -.87452E-03 0.12947E-02 0.54684E-02 0.10465E-01 0.14094E-01
 0.15128E-01 0.14441E-01 0.13790E-01 0.13813E-01 0.13932E-01 0.14306E-01 0.17382E-01 0.27096E-01 0.46240E-01 0.73846E-01
 0.10416     0.12813     -.57588     -.52435     -.39148     -.22969     -.92661E-01 -.94863E-02 0.22234E-01 0.24088E-01