   5   5   0   0
  0.1024000E+03  0.8000000E-09  0.8000000E-09  0.8000000E-09  0.5000000E-15
  1.000000000000000E-004
  CAR 
 unknown system                          
      3.70539561    -18.85038664  301     -8.09865025      1.00000000
    -18.850  0.0000E+00  0.0000E+00
    -18.775  0.0000E+00  0.0000E+00
    -18.700  0.0000E+00  0.0000E+00
    -18.625  0.0000E+00  0.0000E+00
    -18.550  0.0000E+00  0.0000E+00
    -18.474  0.0000E+00  0.0000E+00
    -18.399  0.0000E+00  0.0000E+00
    -18.324  0.0000E+00  0.0000E+00
    -18.249  0.0000E+00  0.0000E+00
    -18.174  0.0000E+00  0.0000E+00
    -18.099  0.0000E+00  0.0000E+00
    -18.023  0.1477E-15  0.1110E-16
    -17.948  0.1093E-13  0.8327E-15
    -17.873  0.6277E-12  0.4803E-13
    -17.798  0.2725E-10  0.2097E-11
    -17.723  0.8951E-09  0.6939E-10
    -17.647  0.2225E-07  0.1742E-08
    -17.572  0.4187E-06  0.3322E-07
    -17.497  0.5967E-05  0.4819E-06
    -17.422  0.6442E-04  0.5325E-05
    -17.347  0.5269E-03  0.4494E-04
    -17.271  0.3266E-02  0.2905E-03
    -17.196  0.1535E-01  0.1445E-02
    -17.121  0.5471E-01  0.5558E-02
    -17.046  0.1479E+00  0.1668E-01
    -16.971  0.3032E+00  0.3948E-01
    -16.896  0.4717E+00  0.7494E-01
    -16.820  0.5568E+00  0.1168E+00
    -16.745  0.4987E+00  0.1543E+00
    -16.670  0.3389E+00  0.1798E+00
    -16.595  0.1747E+00  0.1929E+00
    -16.520  0.6835E-01  0.1981E+00
    -16.444  0.2028E-01  0.1996E+00
    -16.369  0.4562E-02  0.1999E+00
    -16.294  0.7780E-03  0.2000E+00
    -16.219  0.1006E-03  0.2000E+00
    -16.144  0.9854E-05  0.2000E+00
    -16.069  0.7312E-06  0.2000E+00
    -15.993  0.4110E-07  0.2000E+00
    -15.918  0.1749E-08  0.2000E+00
    -15.843  0.5631E-10  0.2000E+00
    -15.768  0.1372E-11  0.2000E+00
    -15.693  0.2540E-13  0.2000E+00
    -15.617  0.2953E-15  0.2000E+00
    -15.542  0.0000E+00  0.2000E+00
    -15.467  0.0000E+00  0.2000E+00
    -15.392  0.0000E+00  0.2000E+00
    -15.317  0.0000E+00  0.2000E+00
    -15.241  0.0000E+00  0.2000E+00
    -15.166  0.0000E+00  0.2000E+00
    -15.091  0.0000E+00  0.2000E+00
    -15.016  0.0000E+00  0.2000E+00
    -14.941  0.0000E+00  0.2000E+00
    -14.866  0.0000E+00  0.2000E+00
    -14.790  0.0000E+00  0.2000E+00
    -14.715  0.0000E+00  0.2000E+00
    -14.640  0.0000E+00  0.2000E+00
    -14.565  0.0000E+00  0.2000E+00
    -14.490  0.0000E+00  0.2000E+00
    -14.414  0.0000E+00  0.2000E+00
    -14.339  0.0000E+00  0.2000E+00
    -14.264  0.0000E+00  0.2000E+00
    -14.189  0.0000E+00  0.2000E+00
    -14.114  0.0000E+00  0.2000E+00
    -14.038  0.0000E+00  0.2000E+00
    -13.963  0.0000E+00  0.2000E+00
    -13.888  0.0000E+00  0.2000E+00
    -13.813  0.0000E+00  0.2000E+00
    -13.738  0.0000E+00  0.2000E+00
    -13.663  0.0000E+00  0.2000E+00
    -13.587  0.0000E+00  0.2000E+00
    -13.512  0.0000E+00  0.2000E+00
    -13.437  0.0000E+00  0.2000E+00
    -13.362  0.0000E+00  0.2000E+00
    -13.287  0.0000E+00  0.2000E+00
    -13.211  0.0000E+00  0.2000E+00
    -13.136  0.0000E+00  0.2000E+00
    -13.061  0.0000E+00  0.2000E+00
    -12.986  0.0000E+00  0.2000E+00
    -12.911  0.0000E+00  0.2000E+00
    -12.836  0.0000E+00  0.2000E+00
    -12.760  0.0000E+00  0.2000E+00
    -12.685  0.0000E+00  0.2000E+00
    -12.610  0.0000E+00  0.2000E+00
    -12.535  0.0000E+00  0.2000E+00
    -12.460  0.0000E+00  0.2000E+00
    -12.384  0.0000E+00  0.2000E+00
    -12.309  0.0000E+00  0.2000E+00
    -12.234  0.0000E+00  0.2000E+00
    -12.159  0.0000E+00  0.2000E+00
    -12.084  0.0000E+00  0.2000E+00
    -12.008  0.0000E+00  0.2000E+00
    -11.933  0.0000E+00  0.2000E+00
    -11.858  0.0000E+00  0.2000E+00
    -11.783  0.0000E+00  0.2000E+00
    -11.708  0.0000E+00  0.2000E+00
    -11.633  0.0000E+00  0.2000E+00
    -11.557  0.0000E+00  0.2000E+00
    -11.482  0.0000E+00  0.2000E+00
    -11.407  0.0000E+00  0.2000E+00
    -11.332  0.0000E+00  0.2000E+00
    -11.257  0.0000E+00  0.2000E+00
    -11.181  0.0000E+00  0.2000E+00
    -11.106  0.0000E+00  0.2000E+00
    -11.031  0.0000E+00  0.2000E+00
    -10.956  0.0000E+00  0.2000E+00
    -10.881  0.0000E+00  0.2000E+00
    -10.805  0.0000E+00  0.2000E+00
    -10.730  0.0000E+00  0.2000E+00
    -10.655  0.0000E+00  0.2000E+00
    -10.580  0.0000E+00  0.2000E+00
    -10.505  0.0000E+00  0.2000E+00
    -10.430  0.0000E+00  0.2000E+00
    -10.354  0.0000E+00  0.2000E+00
    -10.279  0.4430E-15  0.2000E+00
    -10.204  0.3057E-13  0.2000E+00
    -10.129  0.1756E-11  0.2000E+00
    -10.054  0.7662E-10  0.2000E+00
     -9.978  0.2529E-08  0.2000E+00
     -9.903  0.6318E-07  0.2000E+00
     -9.828  0.1195E-05  0.2000E+00
     -9.753  0.1711E-04  0.2000E+00
     -9.678  0.1857E-03  0.2000E+00
     -9.603  0.1526E-02  0.2001E+00
     -9.527  0.9508E-02  0.2008E+00
     -9.452  0.4491E-01  0.2042E+00
     -9.377  0.1608E+00  0.2163E+00
     -9.302  0.4369E+00  0.2492E+00
     -9.227  0.9003E+00  0.3169E+00
     -9.151  0.1408E+01  0.4227E+00
     -9.076  0.1670E+01  0.5482E+00
     -9.001  0.1503E+01  0.6612E+00
     -8.926  0.1026E+01  0.7384E+00
     -8.851  0.5317E+00  0.7783E+00
     -8.775  0.2090E+00  0.7940E+00
     -8.700  0.6231E-01  0.7987E+00
     -8.625  0.1409E-01  0.7998E+00
     -8.550  0.2415E-02  0.8000E+00
     -8.475  0.3137E-03  0.8000E+00
     -8.400  0.3089E-04  0.8000E+00
     -8.324  0.2304E-05  0.8000E+00
     -8.249  0.1301E-06  0.8000E+00
     -8.174  0.5564E-08  0.8000E+00
     -8.099  0.1801E-09  0.8000E+00
     -8.024  0.4409E-11  0.8000E+00
     -7.948  0.8151E-13  0.8000E+00
     -7.873  0.1772E-14  0.8000E+00
     -7.798  0.0000E+00  0.8000E+00
     -7.723  0.0000E+00  0.8000E+00
     -7.648  0.0000E+00  0.8000E+00
     -7.572  0.0000E+00  0.8000E+00
     -7.497  0.0000E+00  0.8000E+00
     -7.422  0.0000E+00  0.8000E+00
     -7.347  0.0000E+00  0.8000E+00
     -7.272  0.0000E+00  0.8000E+00
     -7.197  0.0000E+00  0.8000E+00
     -7.121  0.0000E+00  0.8000E+00
     -7.046  0.0000E+00  0.8000E+00
     -6.971  0.0000E+00  0.8000E+00
     -6.896  0.0000E+00  0.8000E+00
     -6.821  0.0000E+00  0.8000E+00
     -6.745  0.0000E+00  0.8000E+00
     -6.670  0.0000E+00  0.8000E+00
     -6.595  0.0000E+00  0.8000E+00
     -6.520  0.0000E+00  0.8000E+00
     -6.445  0.0000E+00  0.8000E+00
     -6.370  0.0000E+00  0.8000E+00
     -6.294  0.0000E+00  0.8000E+00
     -6.219  0.0000E+00  0.8000E+00
     -6.144  0.0000E+00  0.8000E+00
     -6.069  0.0000E+00  0.8000E+00
     -5.994  0.0000E+00  0.8000E+00
     -5.918  0.0000E+00  0.8000E+00
     -5.843  0.0000E+00  0.8000E+00
     -5.768  0.0000E+00  0.8000E+00
     -5.693  0.0000E+00  0.8000E+00
     -5.618  0.0000E+00  0.8000E+00
     -5.542  0.0000E+00  0.8000E+00
     -5.467  0.0000E+00  0.8000E+00
     -5.392  0.0000E+00  0.8000E+00
     -5.317  0.0000E+00  0.8000E+00
     -5.242  0.0000E+00  0.8000E+00
     -5.167  0.0000E+00  0.8000E+00
     -5.091  0.0000E+00  0.8000E+00
     -5.016  0.0000E+00  0.8000E+00
     -4.941  0.0000E+00  0.8000E+00
     -4.866  0.0000E+00  0.8000E+00
     -4.791  0.0000E+00  0.8000E+00
     -4.715  0.0000E+00  0.8000E+00
     -4.640  0.0000E+00  0.8000E+00
     -4.565  0.0000E+00  0.8000E+00
     -4.490  0.0000E+00  0.8000E+00
     -4.415  0.0000E+00  0.8000E+00
     -4.340  0.0000E+00  0.8000E+00
     -4.264  0.0000E+00  0.8000E+00
     -4.189  0.0000E+00  0.8000E+00
     -4.114  0.0000E+00  0.8000E+00
     -4.039  0.0000E+00  0.8000E+00
     -3.964  0.0000E+00  0.8000E+00
     -3.888  0.0000E+00  0.8000E+00
     -3.813  0.0000E+00  0.8000E+00
     -3.738  0.0000E+00  0.8000E+00
     -3.663  0.0000E+00  0.8000E+00
     -3.588  0.0000E+00  0.8000E+00
     -3.512  0.0000E+00  0.8000E+00
     -3.437  0.0000E+00  0.8000E+00
     -3.362  0.0000E+00  0.8000E+00
     -3.287  0.0000E+00  0.8000E+00
     -3.212  0.0000E+00  0.8000E+00
     -3.137  0.0000E+00  0.8000E+00
     -3.061  0.0000E+00  0.8000E+00
     -2.986  0.0000E+00  0.8000E+00
     -2.911  0.0000E+00  0.8000E+00
     -2.836  0.0000E+00  0.8000E+00
     -2.761  0.0000E+00  0.8000E+00
     -2.685  0.0000E+00  0.8000E+00
     -2.610  0.0000E+00  0.8000E+00
     -2.535  0.0000E+00  0.8000E+00
     -2.460  0.0000E+00  0.8000E+00
     -2.385  0.0000E+00  0.8000E+00
     -2.309  0.0000E+00  0.8000E+00
     -2.234  0.0000E+00  0.8000E+00
     -2.159  0.0000E+00  0.8000E+00
     -2.084  0.0000E+00  0.8000E+00
     -2.009  0.0000E+00  0.8000E+00
     -1.934  0.0000E+00  0.8000E+00
     -1.858  0.1477E-15  0.8000E+00
     -1.783  0.7974E-14  0.8000E+00
     -1.708  0.4706E-12  0.8000E+00
     -1.633  0.2085E-10  0.8000E+00
     -1.558  0.6991E-09  0.8000E+00
     -1.482  0.1774E-07  0.8000E+00
     -1.407  0.3407E-06  0.8000E+00
     -1.332  0.4955E-05  0.8000E+00
     -1.257  0.5459E-04  0.8000E+00
     -1.182  0.4557E-03  0.8000E+00
     -1.107  0.2883E-02  0.8003E+00
     -1.031  0.1383E-01  0.8013E+00
     -0.956  0.5030E-01  0.8051E+00
     -0.881  0.1388E+00  0.8155E+00
     -0.806  0.2904E+00  0.8373E+00
     -0.731  0.4610E+00  0.8720E+00
     -0.655  0.5553E+00  0.9138E+00
     -0.580  0.5075E+00  0.9519E+00
     -0.505  0.3520E+00  0.9784E+00
     -0.430  0.1852E+00  0.9923E+00
     -0.355  0.7392E-01  0.9979E+00
     -0.279  0.2238E-01  0.9995E+00
     -0.204  0.5138E-02  0.9999E+00
     -0.129  0.8945E-03  0.1000E+01
     -0.054  0.1180E-03  0.1000E+01
      0.021  0.1180E-04  0.1000E+01
      0.096  0.8937E-06  0.1000E+01
      0.172  0.5126E-07  0.1000E+01
      0.247  0.2226E-08  0.1000E+01
      0.322  0.7318E-10  0.1000E+01
      0.397  0.1820E-11  0.1000E+01
      0.472  0.3426E-13  0.1000E+01
      0.548  0.1477E-14  0.1000E+01
      0.623  0.7619E-13  0.1000E+01
      0.698  0.4117E-11  0.1000E+01
      0.773  0.1689E-09  0.1000E+01
      0.848  0.5246E-08  0.1000E+01
      0.924  0.1233E-06  0.1000E+01
      0.999  0.2194E-05  0.1000E+01
      1.074  0.2956E-04  0.1000E+01
      1.149  0.3018E-03  0.1000E+01
      1.224  0.2334E-02  0.1000E+01
      1.299  0.1368E-01  0.1001E+01
      1.375  0.6083E-01  0.1006E+01
      1.450  0.2050E+00  0.1021E+01
      1.525  0.5242E+00  0.1061E+01
      1.600  0.1017E+01  0.1137E+01
      1.675  0.1496E+01  0.1250E+01
      1.751  0.1671E+01  0.1375E+01
      1.826  0.1415E+01  0.1482E+01
      1.901  0.9097E+00  0.1550E+01
      1.976  0.4436E+00  0.1583E+01
      2.051  0.1641E+00  0.1596E+01
      2.126  0.4605E-01  0.1599E+01
      2.202  0.9799E-02  0.1600E+01
      2.277  0.1581E-02  0.1600E+01
      2.352  0.1932E-03  0.1600E+01
      2.427  0.1790E-04  0.1600E+01
      2.502  0.1256E-05  0.1600E+01
      2.578  0.6675E-07  0.1600E+01
      2.653  0.2685E-08  0.1600E+01
      2.728  0.8175E-10  0.1600E+01
      2.803  0.1883E-11  0.1600E+01
      2.878  0.3367E-13  0.1600E+01
      2.954  0.0000E+00  0.1600E+01
      3.029  0.0000E+00  0.1600E+01
      3.104  0.0000E+00  0.1600E+01
      3.179  0.0000E+00  0.1600E+01
      3.254  0.0000E+00  0.1600E+01
      3.329  0.0000E+00  0.1600E+01
      3.405  0.0000E+00  0.1600E+01
      3.480  0.0000E+00  0.1600E+01
      3.555  0.0000E+00  0.1600E+01
      3.630  0.0000E+00  0.1600E+01
      3.705  0.0000E+00  0.1600E+01
