    5    5   10    1
  0.1024000E+03  0.8000000E-09  0.8000000E-09  0.8000000E-09  0.5000000E-15
  1.000000000000000E-004
  CAR 
 unknown system                          
    8    1    8
 
  0.0000000E+00  0.0000000E+00  0.0000000E+00  0.1000000E+01
   1      -16.850387
   2       -9.104892
   3       -9.104892
   4       -9.104892
   5       -0.679883
   6        1.705393
   7        1.705395
   8        1.705396
