<?xml version="1.0" encoding="ISO-8859-1"?>
<modeling>
 <generator>
  <i name="program" type="string">vasp </i>
  <i name="version" type="string">5.2.12  </i>
  <i name="subversion" type="string">11Nov11 complex                                                      parallel </i>
  <i name="platform" type="string">LinuxIFC </i>
  <i name="date" type="string">2012 10 30 </i>
  <i name="time" type="string">23:19:17 </i>
 </generator>
 <incar>
  <i type="string" name="PREC">normal</i>
  <i type="int" name="IBRION">     2</i>
  <i type="int" name="NSW">    10</i>
  <i name="ENCUT">    250.00000000</i>
  <i type="int" name="ISMEAR">     0</i>
 </incar>
 <kpoints>
  <generation param="Monkhorst-Pack">
   <v type="int" name="divisions">       1        1        1 </v>
   <v name="usershift">      0.00000000       0.00000000       0.00000000 </v>
   <v name="genvec1">      1.00000000       0.00000000       0.00000000 </v>
   <v name="genvec2">      0.00000000       1.00000000       0.00000000 </v>
   <v name="genvec3">      0.00000000       0.00000000       1.00000000 </v>
   <v name="shift">      0.00000000       0.00000000       0.00000000 </v>
  </generation>
  <varray name="kpointlist" >
   <v>       0.00000000       0.00000000       0.00000000 </v>
  </varray>
  <varray name="weights" >
   <v>       1.00000000 </v>
  </varray>
 </kpoints>
 <parameters>
  <separator name="general" >
   <i type="string" name="SYSTEM">unknown system</i>
   <i type="logical" name="LCOMPAT"> F  </i>
  </separator>
  <separator name="electronic" >
   <i type="string" name="PREC">normal</i>
   <i name="ENMAX">    250.00000000</i>
   <i name="ENAUG">    644.87300000</i>
   <i name="EDIFF">      0.00010000</i>
   <i type="int" name="IALGO">    38</i>
   <i type="int" name="IWAVPR">    11</i>
   <i type="int" name="NBANDS">     8</i>
   <i name="NELECT">      8.00000000</i>
   <i type="int" name="TURBO">     0</i>
   <i type="int" name="IRESTART">     0</i>
   <i type="int" name="NREBOOT">     0</i>
   <i type="int" name="NMIN">     0</i>
   <i name="EREF">      0.00000000</i>
   <separator name="electronic smearing" >
    <i type="int" name="ISMEAR">     0</i>
    <i name="SIGMA">      0.20000000</i>
    <i name="KSPACING">      0.50000000</i>
    <i type="logical" name="KGAMMA"> T  </i>
   </separator>
   <separator name="electronic projectors" >
    <i type="logical" name="LREAL"> F  </i>
    <v name="ROPT">      0.00000000      0.00000000</v>
    <i type="int" name="LMAXPAW">  -100</i>
    <i type="int" name="LMAXMIX">     2</i>
    <i type="logical" name="NLSPLINE"> F  </i>
   </separator>
   <separator name="electronic startup" >
    <i type="int" name="ISTART">     0</i>
    <i type="int" name="ICHARG">     2</i>
    <i type="int" name="INIWAV">     1</i>
   </separator>
   <separator name="electronic spin" >
    <i type="int" name="ISPIN">     1</i>
    <i type="logical" name="LNONCOLLINEAR"> F  </i>
    <v name="MAGMOM">      1.00000000      1.00000000      1.00000000      1.00000000      1.00000000</v>
    <i name="NUPDOWN">     -1.00000000</i>
    <i type="logical" name="LSORBIT"> F  </i>
    <v name="SAXIS">      0.00000000      0.00000000      1.00000000</v>
    <i type="logical" name="LSPIRAL"> F  </i>
    <v name="QSPIRAL">      0.00000000      0.00000000      0.00000000</v>
    <i type="logical" name="LZEROZ"> F  </i>
   </separator>
   <separator name="electronic exchange-correlation" >
    <i type="logical" name="LASPH"> F  </i>
    <i type="logical" name="LMETAGGA"> F  </i>
   </separator>
   <separator name="electronic convergence" >
    <i type="int" name="NELM">    60</i>
    <i type="int" name="NELMDL">    -5</i>
    <i type="int" name="NELMIN">     2</i>
    <i name="ENINI">    250.00000000</i>
    <separator name="electronic convergence detail" >
     <i type="logical" name="LDIAG"> T  </i>
     <i type="logical" name="LSUBROT"> T  </i>
     <i name="WEIMIN">      0.00100000</i>
     <i name="EBREAK">      0.00000313</i>
     <i name="DEPER">      0.30000000</i>
     <i type="int" name="NRMM">     4</i>
     <i name="TIME">      0.40000000</i>
    </separator>
   </separator>
   <separator name="electronic mixer" >
    <i name="AMIX">      0.40000000</i>
    <i name="BMIX">      1.00000000</i>
    <i name="AMIN">      0.10000000</i>
    <i name="AMIX_MAG">      1.60000000</i>
    <i name="BMIX_MAG">      1.00000000</i>
    <separator name="electronic mixer details" >
     <i type="int" name="IMIX">     4</i>
     <i type="int" name="MAXMIX">   -45</i>
     <i name="WC">    100.00000000</i>
     <i type="int" name="INIMIX">     1</i>
     <i type="int" name="MIXPRE">     1</i>
     <i type="int" name="MREMOVE">     5</i>
    </separator>
   </separator>
   <separator name="electronic dipolcorrection" >
    <i type="logical" name="LDIPOL"> F  </i>
    <i type="logical" name="LMONO"> F  </i>
    <i type="int" name="IDIPOL">     0</i>
    <i name="EPSILON">      1.00000000</i>
    <v name="DIPOL">   -100.00000000   -100.00000000   -100.00000000</v>
    <i name="EFIELD">      0.00000000</i>
   </separator>
  </separator>
  <separator name="grids" >
   <i type="int" name="NGX">    32</i>
   <i type="int" name="NGY">    32</i>
   <i type="int" name="NGZ">    32</i>
   <i type="int" name="NGXF">    64</i>
   <i type="int" name="NGYF">    64</i>
   <i type="int" name="NGZF">    64</i>
   <i type="logical" name="ADDGRID"> F  </i>
  </separator>
  <separator name="ionic" >
   <i type="int" name="NSW">    10</i>
   <i type="int" name="IBRION">     2</i>
   <i type="int" name="ISIF">     2</i>
   <i name="PSTRESS">      0.00000000</i>
   <i name="EDIFFG">      0.00100000</i>
   <i type="int" name="NFREE">     1</i>
   <i name="POTIM">      0.50000000</i>
   <i name="SMASS">     -3.00000000</i>
   <i name="SCALEE">      1.00000000</i>
  </separator>
  <separator name="ionic md" >
   <i name="TEBEG">      0.00010000</i>
   <i name="TEEND">      0.00010000</i>
   <i type="int" name="NBLOCK">     1</i>
   <i type="int" name="KBLOCK">    10</i>
   <i type="int" name="NPACO">   256</i>
   <i name="APACO">     16.00000000</i>
  </separator>
  <separator name="symmetry" >
   <i type="int" name="ISYM">     2</i>
   <i name="SYMPREC">      0.00001000</i>
  </separator>
  <separator name="dos" >
   <i type="logical" name="LORBIT"> F  </i>
   <v name="RWIGS">     -1.00000000     -1.00000000</v>
   <i type="int" name="NEDOS">   301</i>
   <i name="EMIN">     10.00000000</i>
   <i name="EMAX">    -10.00000000</i>
   <i name="EFERMI">      0.00000000</i>
  </separator>
  <separator name="writing" >
   <i type="int" name="NWRITE">     2</i>
   <i type="logical" name="LWAVE"> T  </i>
   <i type="logical" name="LCHARG"> T  </i>
   <i type="logical" name="LPARD"> F  </i>
   <i type="logical" name="LVTOT"> F  </i>
   <i type="logical" name="LVHAR"> F  </i>
   <i type="logical" name="LELF"> F  </i>
   <i type="logical" name="LOPTICS"> F  </i>
   <v name="STM">      0.00000000      0.00000000      0.00000000      0.00000000      0.00000000      0.00000000      0.00000000</v>
  </separator>
  <separator name="performance" >
   <i type="int" name="NPAR">     1</i>
   <i type="int" name="NSIM">     4</i>
   <i type="int" name="NBLK">    -1</i>
   <i type="logical" name="LPLANE"> T  </i>
   <i type="logical" name="LSCALAPACK"> F  </i>
   <i type="logical" name="LSCAAWARE"> F  </i>
   <i type="logical" name="LSCALU"> F  </i>
   <i type="logical" name="LASYNC"> F  </i>
   <i type="logical" name="LORBITALREAL"> F  </i>
  </separator>
  <separator name="miscellaneous" >
   <i type="int" name="IDIOT">     3</i>
   <i type="logical" name="LMUSIC"> F  </i>
   <v name="POMASS">      1.00000000     12.01100000</v>
   <v name="DARWINR">      0.00000000      0.00000000</v>
   <v name="DARWINV">      1.00000000      1.00000000</v>
   <i type="logical" name="LCORR"> T  </i>
  </separator>
  <i type="logical" name="GGA_COMPAT"> T  </i>
  <i type="logical" name="LBERRY"> F  </i>
  <i type="int" name="ICORELEVEL">     0</i>
  <i type="logical" name="LDAU"> F  </i>
  <i type="int" name="I_CONSTRAINED_M">     0</i>
  <separator name="electronic exchange-correlation" >
   <i type="string" name="GGA">--</i>
   <i type="int" name="VOSKOWN">     0</i>
   <i type="logical" name="LHFCALC"> F  </i>
   <i type="string" name="PRECFOCK"></i>
   <i type="logical" name="LHFONE"> F  </i>
   <i type="logical" name="LRHFCALC"> F  </i>
   <i type="logical" name="LTHOMAS"> F  </i>
   <i type="logical" name="LMODELHF"> F  </i>
   <i name="ENCUT4O">     -1.00000000</i>
   <i type="int" name="EXXOEP">     0</i>
   <i type="int" name="FOURORBIT">     0</i>
   <i name="AEXX">      0.00000000</i>
   <i name="HFALPHA">      0.00000000</i>
   <i name="ALDAX">      1.00000000</i>
   <i name="AGGAX">      1.00000000</i>
   <i name="ALDAC">      1.00000000</i>
   <i name="AGGAC">      1.00000000</i>
   <i type="int" name="NKREDX">     1</i>
   <i type="int" name="NKREDY">     1</i>
   <i type="int" name="NKREDZ">     1</i>
   <i type="logical" name="SHIFTRED"> F  </i>
   <i type="logical" name="ODDONLY"> F  </i>
   <i type="logical" name="EVENONLY"> F  </i>
   <i type="int" name="LMAXFOCK">     0</i>
   <i type="int" name="NMAXFOCKAE">     0</i>
   <i type="logical" name="LFOCKAEDFT"> F  </i>
   <i name="HFSCREEN">      0.00000000</i>
   <i name="HFSCREENC">      0.00000000</i>
  </separator>
  <separator name="vdW DFT" >
   <i type="logical" name="LUSE_VDW"> F  </i>
   <i name="Zab_VDW">     -0.84910000</i>
   <i name="PARAM1">      0.12340000</i>
   <i name="PARAM2">      1.00000000</i>
   <i name="PARAM3">      0.00000000</i>
  </separator>
  <separator name="model GW" >
   <i type="int" name="MODEL_GW">     0</i>
   <i name="MODEL_EPS0">     61.44000000</i>
   <i name="MODEL_ALPHA">      1.00000000</i>
  </separator>
  <separator name="linear response parameters" >
   <i type="logical" name="LEPSILON"> F  </i>
   <i type="logical" name="LRPA"> F  </i>
   <i type="logical" name="LNABLA"> F  </i>
   <i type="logical" name="LVEL"> F  </i>
   <i type="int" name="KINTER">     0</i>
   <i name="CSHIFT">      0.10000000</i>
   <i name="OMEGAMAX">     -1.00000000</i>
  </separator>
  <separator name="orbital magnetization" >
   <i type="logical" name="NUCIND"> F  </i>
   <v name="MAGPOS">      0.00000000      0.00000000      0.00000000</v>
   <i type="logical" name="LNICSALL"> T  </i>
   <i type="logical" name="ORBITALMAG"> F  </i>
   <i type="logical" name="LMAGBLOCH"> F  </i>
   <i type="logical" name="LCHIMAG"> F  </i>
   <i type="logical" name="LGAUGE"> T  </i>
   <i type="int" name="MAGATOM">     0</i>
   <v name="MAGDIPOL">      0.00000000      0.00000000      0.00000000</v>
   <v name="AVECCONST">      0.00000000      0.00000000      0.00000000</v>
  </separator>
  <separator name="response functions" >
   <i type="logical" name="LADDER"> F  </i>
   <i type="logical" name="LHARTREE"> T  </i>
   <i type="int" name="IBSE">     0</i>
   <i type="logical" name="LTCTE"> F  </i>
   <i type="logical" name="LTETE"> F  </i>
   <i type="logical" name="LFXCEPS"> F  </i>
   <i type="logical" name="L2ORDER"> F  </i>
   <i type="logical" name="LUSEW"> F  </i>
   <i name="ENCUTGW">     -2.00000000</i>
   <i name="ENCUTGWSOFT">     -2.00000000</i>
   <i name="ENCUTLF">     -1.00000000</i>
   <i type="int" name="LMAXMP2">    -1</i>
   <i name="SCISSOR">      0.00000000</i>
   <i type="int" name="NOMEGA">     0</i>
   <i type="int" name="NOMEGAR">     0</i>
   <i type="int" name="NBANDSGW">    -1</i>
   <i type="int" name="NBANDSO">    -1</i>
   <i type="int" name="NBANDSV">    -1</i>
   <i name="OPTEMAX">      0.00000000</i>
   <i type="int" name="NELM">     1</i>
   <i type="int" name="DIM">     3</i>
   <i type="int" name="ANTIRES">     0</i>
   <i name="OMEGAMAX">    -30.00000000</i>
   <i name="OMEGATL">   -200.00000000</i>
   <i type="int" name="OMEGAGRID">     0</i>
   <i name="CSHIFT">     -0.10000000</i>
   <i type="logical" name="SELFENERGY"> F  </i>
   <i type="logical" name="LSPECTRAL"> F  </i>
   <i type="logical" name="ODDONLYGW"> F  </i>
   <i type="logical" name="EVENONLYGW"> F  </i>
   <i type="int" name="NKREDLFX">     1</i>
   <i type="int" name="NKREDLFY">     1</i>
   <i type="int" name="NKREDLFZ">     1</i>
   <i type="int" name="MAXMEM">  1800</i>
   <i type="int" name="TELESCOPE">     0</i>
  </separator>
 </parameters>
 <atominfo>
  <atoms>       5 </atoms>
  <types>       2 </types>
  <array name="atoms" >
   <dimension dim="1">ion</dimension>
   <field type="string">element</field>
   <field type="int">atomtype</field>
   <set>
    <rc><c>H </c><c>   1</c></rc>
    <rc><c>H </c><c>   1</c></rc>
    <rc><c>H </c><c>   1</c></rc>
    <rc><c>H </c><c>   1</c></rc>
    <rc><c>C </c><c>   2</c></rc>
   </set>
  </array>
  <array name="atomtypes" >
   <dimension dim="1">type</dimension>
   <field type="int">atomspertype</field>
   <field type="string">element</field>
   <field>mass</field>
   <field>valence</field>
   <field type="string">pseudopotential</field>
   <set>
    <rc><c>   4</c><c>H </c><c>      1.00000000</c><c>      1.00000000</c><c> PAW_PBE H 15Jun2001                    </c></rc>
    <rc><c>   1</c><c>C </c><c>     12.01100000</c><c>      4.00000000</c><c> PAW_PBE C 08Apr2002                    </c></rc>
   </set>
  </array>
 </atominfo>
 <structure name="initialpos" >
  <crystal>
   <varray name="basis" >
    <v>       8.00000000       0.00000000       0.00000000 </v>
    <v>       0.00000000       8.00000000       0.00000000 </v>
    <v>       0.00000000       0.00000000       8.00000000 </v>
   </varray>
   <i name="volume">    512.00000000 </i>
   <varray name="rec_basis" >
    <v>       0.12500000       0.00000000       0.00000000 </v>
    <v>       0.00000000       0.12500000       0.00000000 </v>
    <v>       0.00000000       0.00000000       0.12500000 </v>
   </varray>
  </crystal>
  <varray name="positions" >
   <v>       0.07863975       0.07863975       0.07863975 </v>
   <v>       0.92136025       0.92136025       0.07863975 </v>
   <v>       0.07863975       0.92136025       0.92136025 </v>
   <v>       0.92136025       0.07863975       0.92136025 </v>
   <v>       0.00000000       0.00000000       0.00000000 </v>
  </varray>
 </structure>
 <calculation>
  <scstep>
   <time name="dav">    0.17    0.17</time>
   <time name="total">    0.57    0.60</time>
   <energy>
    <i name="alphaZ">      0.47054448 </i>
    <i name="ewald">     98.76290623 </i>
    <i name="hartreedc">   -215.08095114 </i>
    <i name="XCdc">     22.64689745 </i>
    <i name="pawpsdc">     40.95674594 </i>
    <i name="pawaedc">    -42.14325651 </i>
    <i name="eentropy">      0.00000000 </i>
    <i name="bandstr">    -56.01311611 </i>
    <i name="atom">    196.07491031 </i>
    <i name="e_fr_energy">     45.67468066 </i>
    <i name="e_wo_entrp">     45.67468066 </i>
    <i name="e_0_energy">     45.67468066 </i>
   </energy>
  </scstep>
  <scstep>
   <time name="dav">    0.28    0.28</time>
   <time name="total">    0.28    0.30</time>
   <energy>
    <i name="e_fr_energy">    -19.19727366 </i>
    <i name="e_wo_entrp">    -19.19727366 </i>
    <i name="e_0_energy">    -19.19727366 </i>
   </energy>
  </scstep>
  <scstep>
   <time name="dav">    0.16    0.16</time>
   <time name="total">    0.17    0.18</time>
   <energy>
    <i name="e_fr_energy">    -26.72049828 </i>
    <i name="e_wo_entrp">    -26.72049828 </i>
    <i name="e_0_energy">    -26.72049828 </i>
   </energy>
  </scstep>
  <scstep>
   <time name="dav">    0.28    0.28</time>
   <time name="total">    0.28    0.29</time>
   <energy>
    <i name="e_fr_energy">    -26.93925737 </i>
    <i name="e_wo_entrp">    -26.93925737 </i>
    <i name="e_0_energy">    -26.93925737 </i>
   </energy>
  </scstep>
  <scstep>
   <time name="dav">    0.28    0.28</time>
   <time name="total">    0.34    0.39</time>
   <energy>
    <i name="e_fr_energy">    -26.93928964 </i>
    <i name="e_wo_entrp">    -26.93928964 </i>
    <i name="e_0_energy">    -26.93928964 </i>
   </energy>
  </scstep>
  <scstep>
   <time name="dav">    0.28    0.28</time>
   <time name="total">    0.74    0.84</time>
   <energy>
    <i name="e_fr_energy">    -24.35841130 </i>
    <i name="e_wo_entrp">    -24.35841130 </i>
    <i name="e_0_energy">    -24.35841130 </i>
   </energy>
  </scstep>
  <scstep>
   <time name="dav">    0.30    0.31</time>
   <time name="total">    0.81    0.82</time>
   <energy>
    <i name="e_fr_energy">    -23.85176591 </i>
    <i name="e_wo_entrp">    -23.85176591 </i>
    <i name="e_0_energy">    -23.85176591 </i>
   </energy>
  </scstep>
  <scstep>
   <time name="dav">    0.18    0.18</time>
   <time name="total">    0.68    0.73</time>
   <energy>
    <i name="e_fr_energy">    -23.72211991 </i>
    <i name="e_wo_entrp">    -23.72211991 </i>
    <i name="e_0_energy">    -23.72211991 </i>
   </energy>
  </scstep>
  <scstep>
   <time name="dav">    0.18    0.18</time>
   <time name="total">    0.68    0.69</time>
   <energy>
    <i name="e_fr_energy">    -23.71920681 </i>
    <i name="e_wo_entrp">    -23.71920681 </i>
    <i name="e_0_energy">    -23.71920681 </i>
   </energy>
  </scstep>
  <scstep>
   <time name="dav">    0.18    0.18</time>
   <time name="total">    0.67    0.71</time>
   <energy>
    <i name="e_fr_energy">    -23.71963602 </i>
    <i name="e_wo_entrp">    -23.71963602 </i>
    <i name="e_0_energy">    -23.71963602 </i>
   </energy>
  </scstep>
  <scstep>
   <time name="dav">    0.18    0.18</time>
   <time name="total">    0.66    0.68</time>
   <energy>
    <i name="e_fr_energy">    -23.72730145 </i>
    <i name="e_wo_entrp">    -23.72730145 </i>
    <i name="e_0_energy">    -23.72730145 </i>
   </energy>
  </scstep>
  <scstep>
   <time name="dav">    0.18    0.18</time>
   <time name="total">    0.66    0.69</time>
   <energy>
    <i name="e_fr_energy">    -23.72892119 </i>
    <i name="e_wo_entrp">    -23.72892119 </i>
    <i name="e_0_energy">    -23.72892119 </i>
   </energy>
  </scstep>
  <scstep>
   <time name="dav">    0.17    0.17</time>
   <time name="total">    0.67    0.68</time>
   <energy>
    <i name="e_fr_energy">    -23.73020756 </i>
    <i name="e_wo_entrp">    -23.73020756 </i>
    <i name="e_0_energy">    -23.73020756 </i>
   </energy>
  </scstep>
  <scstep>
   <time name="dav">    0.17    0.17</time>
   <time name="total">    0.58    0.59</time>
   <energy>
    <i name="alphaZ">      0.47054448 </i>
    <i name="ewald">     98.76290623 </i>
    <i name="hartreedc">   -254.25878367 </i>
    <i name="XCdc">     25.34764904 </i>
    <i name="pawpsdc">     90.30973795 </i>
    <i name="pawaedc">    -91.56038099 </i>
    <i name="eentropy">      0.00000000 </i>
    <i name="bandstr">    -88.87683030 </i>
    <i name="atom">    196.07491031 </i>
    <i name="e_fr_energy">    -23.73024695 </i>
    <i name="e_wo_entrp">    -23.73024695 </i>
    <i name="e_0_energy">    -23.73024695 </i>
   </energy>
  </scstep>
  <parameters_embedded>
   <separator name="dft+d2" >
    <i type="logical" name="LVDW"> F  </i>
   </separator>
  </parameters_embedded>
  <structure>
   <crystal>
    <varray name="basis" >
     <v>       8.00000000       0.00000000       0.00000000 </v>
     <v>       0.00000000       8.00000000       0.00000000 </v>
     <v>       0.00000000       0.00000000       8.00000000 </v>
    </varray>
    <i name="volume">    512.00000000 </i>
    <varray name="rec_basis" >
     <v>       0.12500000       0.00000000       0.00000000 </v>
     <v>       0.00000000       0.12500000       0.00000000 </v>
     <v>       0.00000000       0.00000000       0.12500000 </v>
    </varray>
   </crystal>
   <varray name="positions" >
    <v>       0.07863975       0.07863975       0.07863975 </v>
    <v>       0.92136025       0.92136025       0.07863975 </v>
    <v>       0.07863975       0.92136025       0.92136025 </v>
    <v>       0.92136025       0.07863975       0.92136025 </v>
    <v>       0.00000000       0.00000000       0.00000000 </v>
   </varray>
  </structure>
  <varray name="forces" >
   <v>       0.24675728       0.24675728       0.24675728 </v>
   <v>      -0.24675728      -0.24675728       0.24675728 </v>
   <v>       0.24675728      -0.24675728      -0.24675728 </v>
   <v>      -0.24675728       0.24675728      -0.24675728 </v>
   <v>       0.00000000       0.00000000       0.00000000 </v>
  </varray>
  <varray name="stress" >
   <v>      -9.72234798       0.00000000       0.00000000 </v>
   <v>       0.00000000      -9.72234798       0.00000000 </v>
   <v>       0.00000000       0.00000000      -9.72234798 </v>
  </varray>
  <energy>
   <i name="e_fr_energy">    -23.73024695 </i>
   <i name="e_wo_entrp">    -23.73024695 </i>
   <i name="e_0_energy">      0.00000000 </i>
  </energy>
  <time name="totalsc">    9.21   10.16</time>
 </calculation>
 <calculation>
  <scstep>
   <time name="dav">    0.17    0.17</time>
   <time name="total">    0.66    0.67</time>
   <energy>
    <i name="alphaZ">      0.47054448 </i>
    <i name="ewald">     94.01686058 </i>
    <i name="hartreedc">   -251.51217044 </i>
    <i name="XCdc">     25.20487073 </i>
    <i name="pawpsdc">     90.28961580 </i>
    <i name="pawaedc">    -91.54034463 </i>
    <i name="eentropy">      0.00000000 </i>
    <i name="bandstr">    -86.75315981 </i>
    <i name="atom">    196.07491031 </i>
    <i name="e_fr_energy">    -23.74887298 </i>
    <i name="e_wo_entrp">    -23.74887298 </i>
    <i name="e_0_energy">    -23.74887298 </i>
   </energy>
  </scstep>
  <scstep>
   <time name="dav">    0.30    0.30</time>
   <time name="total">    0.76    0.78</time>
   <energy>
    <i name="e_fr_energy">    -23.74065400 </i>
    <i name="e_wo_entrp">    -23.74065400 </i>
    <i name="e_0_energy">    -23.74065400 </i>
   </energy>
  </scstep>
  <scstep>
   <time name="dav">    0.18    0.18</time>
   <time name="total">    0.63    0.64</time>
   <energy>
    <i name="e_fr_energy">    -23.74005443 </i>
    <i name="e_wo_entrp">    -23.74005443 </i>
    <i name="e_0_energy">    -23.74005443 </i>
   </energy>
  </scstep>
  <scstep>
   <time name="dav">    0.24    0.24</time>
   <time name="total">    0.63    1.20</time>
   <energy>
    <i name="alphaZ">      0.47054448 </i>
    <i name="ewald">     94.01686058 </i>
    <i name="hartreedc">   -250.09031822 </i>
    <i name="XCdc">     25.12369477 </i>
    <i name="pawpsdc">     86.28953176 </i>
    <i name="pawaedc">    -87.52352210 </i>
    <i name="eentropy">      0.00000000 </i>
    <i name="bandstr">    -88.10177592 </i>
    <i name="atom">    196.07491031 </i>
    <i name="e_fr_energy">    -23.74007433 </i>
    <i name="e_wo_entrp">    -23.74007433 </i>
    <i name="e_0_energy">    -23.74007433 </i>
   </energy>
  </scstep>
  <structure>
   <crystal>
    <varray name="basis" >
     <v>       8.00000000       0.00000000       0.00000000 </v>
     <v>       0.00000000       8.00000000       0.00000000 </v>
     <v>       0.00000000       0.00000000       8.00000000 </v>
    </varray>
    <i name="volume">    512.00000000 </i>
    <varray name="rec_basis" >
     <v>       0.12500000       0.00000000       0.00000000 </v>
     <v>       0.00000000       0.12500000       0.00000000 </v>
     <v>       0.00000000       0.00000000       0.12500000 </v>
    </varray>
   </crystal>
   <varray name="positions" >
    <v>       0.08012778       0.08012778       0.08012778 </v>
    <v>       0.91987222       0.91987222       0.08012778 </v>
    <v>       0.08012778       0.91987222       0.91987222 </v>
    <v>       0.91987222       0.08012778       0.91987222 </v>
    <v>       0.00000000       0.00000000       0.00000000 </v>
   </varray>
  </structure>
  <varray name="forces" >
   <v>      -0.11025667      -0.11025667      -0.11025667 </v>
   <v>       0.11025667       0.11025667      -0.11025667 </v>
   <v>      -0.11025667       0.11025667       0.11025667 </v>
   <v>       0.11025667      -0.11025667       0.11025667 </v>
   <v>       0.00000000       0.00000000       0.00000000 </v>
  </varray>
  <varray name="stress" >
   <v>     -12.37944373       0.00000000       0.00000000 </v>
   <v>       0.00000000     -12.37944373       0.00000000 </v>
   <v>       0.00000000       0.00000000     -12.37944373 </v>
  </varray>
  <energy>
   <i name="e_fr_energy">    -23.74007433 </i>
   <i name="e_wo_entrp">    -23.74007433 </i>
   <i name="e_0_energy">      0.00000000 </i>
  </energy>
  <time name="totalsc">    3.57    4.27</time>
 </calculation>
 <calculation>
  <scstep>
   <time name="dav">    0.18    0.18</time>
   <time name="total">    0.63    0.64</time>
   <energy>
    <i name="alphaZ">      0.47054448 </i>
    <i name="ewald">     95.46318194 </i>
    <i name="hartreedc">   -250.71435952 </i>
    <i name="XCdc">     25.15002161 </i>
    <i name="pawpsdc">     85.49277842 </i>
    <i name="pawaedc">    -86.72611577 </i>
    <i name="eentropy">      0.00000000 </i>
    <i name="bandstr">    -88.95507042 </i>
    <i name="atom">    196.07491031 </i>
    <i name="e_fr_energy">    -23.74410895 </i>
    <i name="e_wo_entrp">    -23.74410895 </i>
    <i name="e_0_energy">    -23.74410895 </i>
   </energy>
  </scstep>
  <scstep>
   <time name="dav">    0.24    0.24</time>
   <time name="total">    0.71    0.73</time>
   <energy>
    <i name="e_fr_energy">    -23.74248981 </i>
    <i name="e_wo_entrp">    -23.74248981 </i>
    <i name="e_0_energy">    -23.74248981 </i>
   </energy>
  </scstep>
  <scstep>
   <time name="dav">    0.17    0.18</time>
   <time name="total">    0.66    1.27</time>
   <energy>
    <i name="e_fr_energy">    -23.74238941 </i>
    <i name="e_wo_entrp">    -23.74238941 </i>
    <i name="e_0_energy">    -23.74238941 </i>
   </energy>
  </scstep>
  <scstep>
   <time name="dav">    0.30    0.30</time>
   <time name="total">    0.73    0.78</time>
   <energy>
    <i name="alphaZ">      0.47054448 </i>
    <i name="ewald">     95.46318194 </i>
    <i name="hartreedc">   -251.37044118 </i>
    <i name="XCdc">     25.18905509 </i>
    <i name="pawpsdc">     87.02533125 </i>
    <i name="pawaedc">    -88.26484365 </i>
    <i name="eentropy">      0.00000000 </i>
    <i name="bandstr">    -88.33012665 </i>
    <i name="atom">    196.07491031 </i>
    <i name="e_fr_energy">    -23.74238841 </i>
    <i name="e_wo_entrp">    -23.74238841 </i>
    <i name="e_0_energy">    -23.74238841 </i>
   </energy>
  </scstep>
  <structure>
   <crystal>
    <varray name="basis" >
     <v>       8.00000000       0.00000000       0.00000000 </v>
     <v>       0.00000000       8.00000000       0.00000000 </v>
     <v>       0.00000000       0.00000000       8.00000000 </v>
    </varray>
    <i name="volume">    512.00000000 </i>
    <varray name="rec_basis" >
     <v>       0.12500000       0.00000000       0.00000000 </v>
     <v>       0.00000000       0.12500000       0.00000000 </v>
     <v>       0.00000000       0.00000000       0.12500000 </v>
    </varray>
   </crystal>
   <varray name="positions" >
    <v>       0.07966823       0.07966823       0.07966823 </v>
    <v>       0.92033177       0.92033177       0.07966823 </v>
    <v>       0.07966823       0.92033177       0.92033177 </v>
    <v>       0.92033177       0.07966823       0.92033177 </v>
    <v>       0.00000000       0.00000000       0.00000000 </v>
   </varray>
  </structure>
  <varray name="forces" >
   <v>       0.00424632       0.00424632       0.00424632 </v>
   <v>      -0.00424632      -0.00424632       0.00424632 </v>
   <v>       0.00424632      -0.00424632      -0.00424632 </v>
   <v>      -0.00424632       0.00424632      -0.00424632 </v>
   <v>       0.00000000       0.00000000       0.00000000 </v>
  </varray>
  <varray name="stress" >
   <v>     -11.69852087       0.00000000       0.00000000 </v>
   <v>       0.00000000     -11.69852087       0.00000000 </v>
   <v>       0.00000000       0.00000000     -11.69852087 </v>
  </varray>
  <energy>
   <i name="e_fr_energy">    -23.74238841 </i>
   <i name="e_wo_entrp">    -23.74238841 </i>
   <i name="e_0_energy">      0.00000000 </i>
  </energy>
  <time name="totalsc">    3.57    4.43</time>
  <eigenvalues>
   <array>
    <dimension dim="1">band</dimension>
    <dimension dim="2">kpoint</dimension>
    <dimension dim="3">spin</dimension>
    <field>eigene</field>
    <field>occ</field>
    <set>
     <set comment="spin 1">
      <set comment="kpoint 1">
       <r>  -16.8504    1.0000 </r>
       <r>   -9.1049    1.0000 </r>
       <r>   -9.1049    1.0000 </r>
       <r>   -9.1049    1.0000 </r>
       <r>   -0.6799    0.0000 </r>
       <r>    1.7054    0.0000 </r>
       <r>    1.7054    0.0000 </r>
       <r>    1.7054    0.0000 </r>
      </set>
     </set>
    </set>
   </array>
  </eigenvalues>
  <separator name="orbital magnetization" >
   <v name="MAGDIPOLOUT">      0.00000000      0.00000000      0.00000000</v>
  </separator>
  <dos>
   <i name="efermi">     -8.09865025 </i>
   <total>
    <array>
     <dimension dim="1">gridpoints</dimension>
     <dimension dim="2">spin</dimension>
     <field>energy</field>
     <field>total</field>
     <field>integrated</field>
     <set>
      <set comment="spin 1">
       <r>   -18.8504     0.0000     0.0000 </r>
       <r>   -18.7752     0.0000     0.0000 </r>
       <r>   -18.7000     0.0000     0.0000 </r>
       <r>   -18.6248     0.0000     0.0000 </r>
       <r>   -18.5496     0.0000     0.0000 </r>
       <r>   -18.4745     0.0000     0.0000 </r>
       <r>   -18.3993     0.0000     0.0000 </r>
       <r>   -18.3241     0.0000     0.0000 </r>
       <r>   -18.2489     0.0000     0.0000 </r>
       <r>   -18.1737     0.0000     0.0000 </r>
       <r>   -18.0985     0.0000     0.0000 </r>
       <r>   -18.0233     0.0000     0.0000 </r>
       <r>   -17.9482     0.0000     0.0000 </r>
       <r>   -17.8730     0.0000     0.0000 </r>
       <r>   -17.7978     0.0000     0.0000 </r>
       <r>   -17.7226     0.0000     0.0000 </r>
       <r>   -17.6474     0.0000     0.0000 </r>
       <r>   -17.5722     0.0000     0.0000 </r>
       <r>   -17.4970     0.0001     0.0000 </r>
       <r>   -17.4219     0.0006     0.0001 </r>
       <r>   -17.3467     0.0053     0.0004 </r>
       <r>   -17.2715     0.0327     0.0029 </r>
       <r>   -17.1963     0.1535     0.0144 </r>
       <r>   -17.1211     0.5471     0.0556 </r>
       <r>   -17.0459     1.4788     0.1668 </r>
       <r>   -16.9707     3.0324     0.3948 </r>
       <r>   -16.8956     4.7174     0.7494 </r>
       <r>   -16.8204     5.5683     1.1681 </r>
       <r>   -16.7452     4.9872     1.5431 </r>
       <r>   -16.6700     3.3891     1.7979 </r>
       <r>   -16.5948     1.7474     1.9293 </r>
       <r>   -16.5196     0.6835     1.9807 </r>
       <r>   -16.4444     0.2028     1.9959 </r>
       <r>   -16.3693     0.0456     1.9993 </r>
       <r>   -16.2941     0.0078     1.9999 </r>
       <r>   -16.2189     0.0010     2.0000 </r>
       <r>   -16.1437     0.0001     2.0000 </r>
       <r>   -16.0685     0.0000     2.0000 </r>
       <r>   -15.9933     0.0000     2.0000 </r>
       <r>   -15.9181     0.0000     2.0000 </r>
       <r>   -15.8429     0.0000     2.0000 </r>
       <r>   -15.7678     0.0000     2.0000 </r>
       <r>   -15.6926     0.0000     2.0000 </r>
       <r>   -15.6174     0.0000     2.0000 </r>
       <r>   -15.5422     0.0000     2.0000 </r>
       <r>   -15.4670     0.0000     2.0000 </r>
       <r>   -15.3918     0.0000     2.0000 </r>
       <r>   -15.3166     0.0000     2.0000 </r>
       <r>   -15.2415     0.0000     2.0000 </r>
       <r>   -15.1663     0.0000     2.0000 </r>
       <r>   -15.0911     0.0000     2.0000 </r>
       <r>   -15.0159     0.0000     2.0000 </r>
       <r>   -14.9407     0.0000     2.0000 </r>
       <r>   -14.8655     0.0000     2.0000 </r>
       <r>   -14.7903     0.0000     2.0000 </r>
       <r>   -14.7152     0.0000     2.0000 </r>
       <r>   -14.6400     0.0000     2.0000 </r>
       <r>   -14.5648     0.0000     2.0000 </r>
       <r>   -14.4896     0.0000     2.0000 </r>
       <r>   -14.4144     0.0000     2.0000 </r>
       <r>   -14.3392     0.0000     2.0000 </r>
       <r>   -14.2640     0.0000     2.0000 </r>
       <r>   -14.1889     0.0000     2.0000 </r>
       <r>   -14.1137     0.0000     2.0000 </r>
       <r>   -14.0385     0.0000     2.0000 </r>
       <r>   -13.9633     0.0000     2.0000 </r>
       <r>   -13.8881     0.0000     2.0000 </r>
       <r>   -13.8129     0.0000     2.0000 </r>
       <r>   -13.7377     0.0000     2.0000 </r>
       <r>   -13.6626     0.0000     2.0000 </r>
       <r>   -13.5874     0.0000     2.0000 </r>
       <r>   -13.5122     0.0000     2.0000 </r>
       <r>   -13.4370     0.0000     2.0000 </r>
       <r>   -13.3618     0.0000     2.0000 </r>
       <r>   -13.2866     0.0000     2.0000 </r>
       <r>   -13.2114     0.0000     2.0000 </r>
       <r>   -13.1363     0.0000     2.0000 </r>
       <r>   -13.0611     0.0000     2.0000 </r>
       <r>   -12.9859     0.0000     2.0000 </r>
       <r>   -12.9107     0.0000     2.0000 </r>
       <r>   -12.8355     0.0000     2.0000 </r>
       <r>   -12.7603     0.0000     2.0000 </r>
       <r>   -12.6851     0.0000     2.0000 </r>
       <r>   -12.6100     0.0000     2.0000 </r>
       <r>   -12.5348     0.0000     2.0000 </r>
       <r>   -12.4596     0.0000     2.0000 </r>
       <r>   -12.3844     0.0000     2.0000 </r>
       <r>   -12.3092     0.0000     2.0000 </r>
       <r>   -12.2340     0.0000     2.0000 </r>
       <r>   -12.1588     0.0000     2.0000 </r>
       <r>   -12.0837     0.0000     2.0000 </r>
       <r>   -12.0085     0.0000     2.0000 </r>
       <r>   -11.9333     0.0000     2.0000 </r>
       <r>   -11.8581     0.0000     2.0000 </r>
       <r>   -11.7829     0.0000     2.0000 </r>
       <r>   -11.7077     0.0000     2.0000 </r>
       <r>   -11.6325     0.0000     2.0000 </r>
       <r>   -11.5574     0.0000     2.0000 </r>
       <r>   -11.4822     0.0000     2.0000 </r>
       <r>   -11.4070     0.0000     2.0000 </r>
       <r>   -11.3318     0.0000     2.0000 </r>
       <r>   -11.2566     0.0000     2.0000 </r>
       <r>   -11.1814     0.0000     2.0000 </r>
       <r>   -11.1062     0.0000     2.0000 </r>
       <r>   -11.0310     0.0000     2.0000 </r>
       <r>   -10.9559     0.0000     2.0000 </r>
       <r>   -10.8807     0.0000     2.0000 </r>
       <r>   -10.8055     0.0000     2.0000 </r>
       <r>   -10.7303     0.0000     2.0000 </r>
       <r>   -10.6551     0.0000     2.0000 </r>
       <r>   -10.5799     0.0000     2.0000 </r>
       <r>   -10.5047     0.0000     2.0000 </r>
       <r>   -10.4296     0.0000     2.0000 </r>
       <r>   -10.3544     0.0000     2.0000 </r>
       <r>   -10.2792     0.0000     2.0000 </r>
       <r>   -10.2040     0.0000     2.0000 </r>
       <r>   -10.1288     0.0000     2.0000 </r>
       <r>   -10.0536     0.0000     2.0000 </r>
       <r>    -9.9784     0.0000     2.0000 </r>
       <r>    -9.9033     0.0000     2.0000 </r>
       <r>    -9.8281     0.0000     2.0000 </r>
       <r>    -9.7529     0.0002     2.0000 </r>
       <r>    -9.6777     0.0019     2.0002 </r>
       <r>    -9.6025     0.0153     2.0013 </r>
       <r>    -9.5273     0.0951     2.0084 </r>
       <r>    -9.4521     0.4491     2.0422 </r>
       <r>    -9.3770     1.6084     2.1631 </r>
       <r>    -9.3018     4.3690     2.4916 </r>
       <r>    -9.2266     9.0030     3.1685 </r>
       <r>    -9.1514    14.0751     4.2268 </r>
       <r>    -9.0762    16.6960     5.4821 </r>
       <r>    -9.0010    15.0274     6.6119 </r>
       <r>    -8.9258    10.2626     7.3835 </r>
       <r>    -8.8507     5.3174     7.7833 </r>
       <r>    -8.7755     2.0901     7.9405 </r>
       <r>    -8.7003     0.6231     7.9873 </r>
       <r>    -8.6251     0.1409     7.9979 </r>
       <r>    -8.5499     0.0241     7.9997 </r>
       <r>    -8.4747     0.0031     8.0000 </r>
       <r>    -8.3995     0.0003     8.0000 </r>
       <r>    -8.3244     0.0000     8.0000 </r>
       <r>    -8.2492     0.0000     8.0000 </r>
       <r>    -8.1740     0.0000     8.0000 </r>
       <r>    -8.0988     0.0000     8.0000 </r>
       <r>    -8.0236     0.0000     8.0000 </r>
       <r>    -7.9484     0.0000     8.0000 </r>
       <r>    -7.8732     0.0000     8.0000 </r>
       <r>    -7.7981     0.0000     8.0000 </r>
       <r>    -7.7229     0.0000     8.0000 </r>
       <r>    -7.6477     0.0000     8.0000 </r>
       <r>    -7.5725     0.0000     8.0000 </r>
       <r>    -7.4973     0.0000     8.0000 </r>
       <r>    -7.4221     0.0000     8.0000 </r>
       <r>    -7.3469     0.0000     8.0000 </r>
       <r>    -7.2718     0.0000     8.0000 </r>
       <r>    -7.1966     0.0000     8.0000 </r>
       <r>    -7.1214     0.0000     8.0000 </r>
       <r>    -7.0462     0.0000     8.0000 </r>
       <r>    -6.9710     0.0000     8.0000 </r>
       <r>    -6.8958     0.0000     8.0000 </r>
       <r>    -6.8206     0.0000     8.0000 </r>
       <r>    -6.7455     0.0000     8.0000 </r>
       <r>    -6.6703     0.0000     8.0000 </r>
       <r>    -6.5951     0.0000     8.0000 </r>
       <r>    -6.5199     0.0000     8.0000 </r>
       <r>    -6.4447     0.0000     8.0000 </r>
       <r>    -6.3695     0.0000     8.0000 </r>
       <r>    -6.2943     0.0000     8.0000 </r>
       <r>    -6.2191     0.0000     8.0000 </r>
       <r>    -6.1440     0.0000     8.0000 </r>
       <r>    -6.0688     0.0000     8.0000 </r>
       <r>    -5.9936     0.0000     8.0000 </r>
       <r>    -5.9184     0.0000     8.0000 </r>
       <r>    -5.8432     0.0000     8.0000 </r>
       <r>    -5.7680     0.0000     8.0000 </r>
       <r>    -5.6928     0.0000     8.0000 </r>
       <r>    -5.6177     0.0000     8.0000 </r>
       <r>    -5.5425     0.0000     8.0000 </r>
       <r>    -5.4673     0.0000     8.0000 </r>
       <r>    -5.3921     0.0000     8.0000 </r>
       <r>    -5.3169     0.0000     8.0000 </r>
       <r>    -5.2417     0.0000     8.0000 </r>
       <r>    -5.1665     0.0000     8.0000 </r>
       <r>    -5.0914     0.0000     8.0000 </r>
       <r>    -5.0162     0.0000     8.0000 </r>
       <r>    -4.9410     0.0000     8.0000 </r>
       <r>    -4.8658     0.0000     8.0000 </r>
       <r>    -4.7906     0.0000     8.0000 </r>
       <r>    -4.7154     0.0000     8.0000 </r>
       <r>    -4.6402     0.0000     8.0000 </r>
       <r>    -4.5651     0.0000     8.0000 </r>
       <r>    -4.4899     0.0000     8.0000 </r>
       <r>    -4.4147     0.0000     8.0000 </r>
       <r>    -4.3395     0.0000     8.0000 </r>
       <r>    -4.2643     0.0000     8.0000 </r>
       <r>    -4.1891     0.0000     8.0000 </r>
       <r>    -4.1139     0.0000     8.0000 </r>
       <r>    -4.0388     0.0000     8.0000 </r>
       <r>    -3.9636     0.0000     8.0000 </r>
       <r>    -3.8884     0.0000     8.0000 </r>
       <r>    -3.8132     0.0000     8.0000 </r>
       <r>    -3.7380     0.0000     8.0000 </r>
       <r>    -3.6628     0.0000     8.0000 </r>
       <r>    -3.5876     0.0000     8.0000 </r>
       <r>    -3.5125     0.0000     8.0000 </r>
       <r>    -3.4373     0.0000     8.0000 </r>
       <r>    -3.3621     0.0000     8.0000 </r>
       <r>    -3.2869     0.0000     8.0000 </r>
       <r>    -3.2117     0.0000     8.0000 </r>
       <r>    -3.1365     0.0000     8.0000 </r>
       <r>    -3.0613     0.0000     8.0000 </r>
       <r>    -2.9862     0.0000     8.0000 </r>
       <r>    -2.9110     0.0000     8.0000 </r>
       <r>    -2.8358     0.0000     8.0000 </r>
       <r>    -2.7606     0.0000     8.0000 </r>
       <r>    -2.6854     0.0000     8.0000 </r>
       <r>    -2.6102     0.0000     8.0000 </r>
       <r>    -2.5350     0.0000     8.0000 </r>
       <r>    -2.4599     0.0000     8.0000 </r>
       <r>    -2.3847     0.0000     8.0000 </r>
       <r>    -2.3095     0.0000     8.0000 </r>
       <r>    -2.2343     0.0000     8.0000 </r>
       <r>    -2.1591     0.0000     8.0000 </r>
       <r>    -2.0839     0.0000     8.0000 </r>
       <r>    -2.0087     0.0000     8.0000 </r>
       <r>    -1.9335     0.0000     8.0000 </r>
       <r>    -1.8584     0.0000     8.0000 </r>
       <r>    -1.7832     0.0000     8.0000 </r>
       <r>    -1.7080     0.0000     8.0000 </r>
       <r>    -1.6328     0.0000     8.0000 </r>
       <r>    -1.5576     0.0000     8.0000 </r>
       <r>    -1.4824     0.0000     8.0000 </r>
       <r>    -1.4072     0.0000     8.0000 </r>
       <r>    -1.3321     0.0000     8.0000 </r>
       <r>    -1.2569     0.0005     8.0000 </r>
       <r>    -1.1817     0.0046     8.0004 </r>
       <r>    -1.1065     0.0288     8.0026 </r>
       <r>    -1.0313     0.1383     8.0130 </r>
       <r>    -0.9561     0.5030     8.0508 </r>
       <r>    -0.8809     1.3876     8.1551 </r>
       <r>    -0.8058     2.9036     8.3734 </r>
       <r>    -0.7306     4.6098     8.7200 </r>
       <r>    -0.6554     5.5528     9.1375 </r>
       <r>    -0.5802     5.0753     9.5191 </r>
       <r>    -0.5050     3.5197     9.7837 </r>
       <r>    -0.4298     1.8519     9.9230 </r>
       <r>    -0.3546     0.7392     9.9785 </r>
       <r>    -0.2795     0.2238     9.9954 </r>
       <r>    -0.2043     0.0514     9.9992 </r>
       <r>    -0.1291     0.0089     9.9999 </r>
       <r>    -0.0539     0.0012    10.0000 </r>
       <r>     0.0213     0.0001    10.0000 </r>
       <r>     0.0965     0.0000    10.0000 </r>
       <r>     0.1717     0.0000    10.0000 </r>
       <r>     0.2468     0.0000    10.0000 </r>
       <r>     0.3220     0.0000    10.0000 </r>
       <r>     0.3972     0.0000    10.0000 </r>
       <r>     0.4724     0.0000    10.0000 </r>
       <r>     0.5476     0.0000    10.0000 </r>
       <r>     0.6228     0.0000    10.0000 </r>
       <r>     0.6980     0.0000    10.0000 </r>
       <r>     0.7731     0.0000    10.0000 </r>
       <r>     0.8483     0.0000    10.0000 </r>
       <r>     0.9235     0.0000    10.0000 </r>
       <r>     0.9987     0.0000    10.0000 </r>
       <r>     1.0739     0.0003    10.0000 </r>
       <r>     1.1491     0.0030    10.0003 </r>
       <r>     1.2243     0.0233    10.0020 </r>
       <r>     1.2994     0.1368    10.0123 </r>
       <r>     1.3746     0.6083    10.0580 </r>
       <r>     1.4498     2.0504    10.2122 </r>
       <r>     1.5250     5.2422    10.6063 </r>
       <r>     1.6002    10.1675    11.3708 </r>
       <r>     1.6754    14.9617    12.4957 </r>
       <r>     1.7506    16.7050    13.7517 </r>
       <r>     1.8257    14.1523    14.8157 </r>
       <r>     1.9009     9.0971    15.4997 </r>
       <r>     1.9761     4.4365    15.8333 </r>
       <r>     2.0513     1.6413    15.9567 </r>
       <r>     2.1265     0.4605    15.9913 </r>
       <r>     2.2017     0.0980    15.9987 </r>
       <r>     2.2769     0.0158    15.9998 </r>
       <r>     2.3520     0.0019    16.0000 </r>
       <r>     2.4272     0.0002    16.0000 </r>
       <r>     2.5024     0.0000    16.0000 </r>
       <r>     2.5776     0.0000    16.0000 </r>
       <r>     2.6528     0.0000    16.0000 </r>
       <r>     2.7280     0.0000    16.0000 </r>
       <r>     2.8032     0.0000    16.0000 </r>
       <r>     2.8784     0.0000    16.0000 </r>
       <r>     2.9535     0.0000    16.0000 </r>
       <r>     3.0287     0.0000    16.0000 </r>
       <r>     3.1039     0.0000    16.0000 </r>
       <r>     3.1791     0.0000    16.0000 </r>
       <r>     3.2543     0.0000    16.0000 </r>
       <r>     3.3295     0.0000    16.0000 </r>
       <r>     3.4047     0.0000    16.0000 </r>
       <r>     3.4798     0.0000    16.0000 </r>
       <r>     3.5550     0.0000    16.0000 </r>
       <r>     3.6302     0.0000    16.0000 </r>
       <r>     3.7054     0.0000    16.0000 </r>
      </set>
     </set>
    </array>
   </total>
  </dos>
 </calculation>
 <structure name="finalpos" >
  <crystal>
   <varray name="basis" >
    <v>       8.00000000       0.00000000       0.00000000 </v>
    <v>       0.00000000       8.00000000       0.00000000 </v>
    <v>       0.00000000       0.00000000       8.00000000 </v>
   </varray>
   <i name="volume">    512.00000000 </i>
   <varray name="rec_basis" >
    <v>       0.12500000       0.00000000       0.00000000 </v>
    <v>       0.00000000       0.12500000       0.00000000 </v>
    <v>       0.00000000       0.00000000       0.12500000 </v>
   </varray>
  </crystal>
  <varray name="positions" >
   <v>       0.07966823       0.07966823       0.07966823 </v>
   <v>       0.92033177       0.92033177       0.07966823 </v>
   <v>       0.07966823       0.92033177       0.92033177 </v>
   <v>       0.92033177       0.07966823       0.92033177 </v>
   <v>       0.00000000       0.00000000       0.00000000 </v>
  </varray>
 </structure>
</modeling>
