   5   5   0   0
  0.1024000E+03  0.8000000E-09  0.8000000E-09  0.8000000E-09  0.5000000E-15
  1.000000000000000E-004
  CAR 
 unknown system                          
      3.95746842    -35.98352682  301     -8.82156980      1.00000000
    -35.984  0.0000E+00  0.0000E+00
    -35.850  0.0000E+00  0.0000E+00
    -35.717  0.0000E+00  0.0000E+00
    -35.584  0.0000E+00  0.0000E+00
    -35.451  0.0000E+00  0.0000E+00
    -35.318  0.0000E+00  0.0000E+00
    -35.185  0.0000E+00  0.0000E+00
    -35.052  0.3211E-13  0.4274E-14
    -34.918  0.2868E-10  0.3823E-11
    -34.785  0.1074E-07  0.1433E-08
    -34.652  0.1693E-05  0.2268E-06
    -34.519  0.1130E-03  0.1528E-04
    -34.386  0.3220E-02  0.4440E-03
    -34.253  0.3944E-01  0.5695E-02
    -34.120  0.2095E+00  0.3359E-01
    -33.986  0.4863E+00  0.9834E-01
    -33.853  0.4953E+00  0.1643E+00
    -33.720  0.2213E+00  0.1937E+00
    -33.587  0.4323E-01  0.1995E+00
    -33.454  0.3663E-02  0.2000E+00
    -33.321  0.1335E-03  0.2000E+00
    -33.188  0.2076E-05  0.2000E+00
    -33.055  0.1368E-07  0.2000E+00
    -32.921  0.3799E-10  0.2000E+00
    -32.788  0.4436E-13  0.2000E+00
    -32.655  0.0000E+00  0.2000E+00
    -32.522  0.0000E+00  0.2000E+00
    -32.389  0.0000E+00  0.2000E+00
    -32.256  0.2001E-14  0.2000E+00
    -32.123  0.2672E-11  0.2000E+00
    -31.989  0.1581E-08  0.2000E+00
    -31.856  0.3928E-06  0.2000E+00
    -31.723  0.4122E-04  0.2000E+00
    -31.590  0.1838E-02  0.2003E+00
    -31.457  0.3508E-01  0.2049E+00
    -31.324  0.2892E+00  0.2434E+00
    -31.191  0.1038E+01  0.3816E+00
    -31.057  0.1630E+01  0.5986E+00
    -30.924  0.1125E+01  0.7484E+00
    -30.791  0.3401E+00  0.7937E+00
    -30.658  0.4480E-01  0.7997E+00
    -30.525  0.2550E-02  0.8000E+00
    -30.392  0.6218E-04  0.8000E+00
    -30.259  0.6447E-06  0.8000E+00
    -30.126  0.2824E-08  0.8000E+00
    -29.992  0.5201E-11  0.8000E+00
    -29.859  0.4003E-14  0.8000E+00
    -29.726  0.0000E+00  0.8000E+00
    -29.593  0.0000E+00  0.8000E+00
    -29.460  0.0000E+00  0.8000E+00
    -29.327  0.0000E+00  0.8000E+00
    -29.194  0.0000E+00  0.8000E+00
    -29.060  0.0000E+00  0.8000E+00
    -28.927  0.0000E+00  0.8000E+00
    -28.794  0.0000E+00  0.8000E+00
    -28.661  0.0000E+00  0.8000E+00
    -28.528  0.0000E+00  0.8000E+00
    -28.395  0.0000E+00  0.8000E+00
    -28.262  0.0000E+00  0.8000E+00
    -28.128  0.0000E+00  0.8000E+00
    -27.995  0.0000E+00  0.8000E+00
    -27.862  0.0000E+00  0.8000E+00
    -27.729  0.0000E+00  0.8000E+00
    -27.596  0.0000E+00  0.8000E+00
    -27.463  0.0000E+00  0.8000E+00
    -27.330  0.0000E+00  0.8000E+00
    -27.197  0.0000E+00  0.8000E+00
    -27.063  0.0000E+00  0.8000E+00
    -26.930  0.0000E+00  0.8000E+00
    -26.797  0.0000E+00  0.8000E+00
    -26.664  0.0000E+00  0.8000E+00
    -26.531  0.0000E+00  0.8000E+00
    -26.398  0.0000E+00  0.8000E+00
    -26.265  0.0000E+00  0.8000E+00
    -26.131  0.0000E+00  0.8000E+00
    -25.998  0.0000E+00  0.8000E+00
    -25.865  0.0000E+00  0.8000E+00
    -25.732  0.0000E+00  0.8000E+00
    -25.599  0.0000E+00  0.8000E+00
    -25.466  0.0000E+00  0.8000E+00
    -25.333  0.0000E+00  0.8000E+00
    -25.199  0.0000E+00  0.8000E+00
    -25.066  0.0000E+00  0.8000E+00
    -24.933  0.0000E+00  0.8000E+00
    -24.800  0.0000E+00  0.8000E+00
    -24.667  0.0000E+00  0.8000E+00
    -24.534  0.0000E+00  0.8000E+00
    -24.401  0.0000E+00  0.8000E+00
    -24.268  0.0000E+00  0.8000E+00
    -24.134  0.0000E+00  0.8000E+00
    -24.001  0.0000E+00  0.8000E+00
    -23.868  0.0000E+00  0.8000E+00
    -23.735  0.0000E+00  0.8000E+00
    -23.602  0.0000E+00  0.8000E+00
    -23.469  0.0000E+00  0.8000E+00
    -23.336  0.0000E+00  0.8000E+00
    -23.202  0.0000E+00  0.8000E+00
    -23.069  0.0000E+00  0.8000E+00
    -22.936  0.0000E+00  0.8000E+00
    -22.803  0.0000E+00  0.8000E+00
    -22.670  0.0000E+00  0.8000E+00
    -22.537  0.0000E+00  0.8000E+00
    -22.404  0.0000E+00  0.8000E+00
    -22.270  0.0000E+00  0.8000E+00
    -22.137  0.0000E+00  0.8000E+00
    -22.004  0.0000E+00  0.8000E+00
    -21.871  0.0000E+00  0.8000E+00
    -21.738  0.0000E+00  0.8000E+00
    -21.605  0.0000E+00  0.8000E+00
    -21.472  0.0000E+00  0.8000E+00
    -21.338  0.0000E+00  0.8000E+00
    -21.205  0.0000E+00  0.8000E+00
    -21.072  0.0000E+00  0.8000E+00
    -20.939  0.0000E+00  0.8000E+00
    -20.806  0.0000E+00  0.8000E+00
    -20.673  0.0000E+00  0.8000E+00
    -20.540  0.0000E+00  0.8000E+00
    -20.407  0.0000E+00  0.8000E+00
    -20.273  0.0000E+00  0.8000E+00
    -20.140  0.0000E+00  0.8000E+00
    -20.007  0.0000E+00  0.8000E+00
    -19.874  0.0000E+00  0.8000E+00
    -19.741  0.0000E+00  0.8000E+00
    -19.608  0.0000E+00  0.8000E+00
    -19.475  0.0000E+00  0.8000E+00
    -19.341  0.0000E+00  0.8000E+00
    -19.208  0.0000E+00  0.8000E+00
    -19.075  0.0000E+00  0.8000E+00
    -18.942  0.0000E+00  0.8000E+00
    -18.809  0.0000E+00  0.8000E+00
    -18.676  0.4353E-13  0.8000E+00
    -18.543  0.3744E-10  0.8000E+00
    -18.409  0.1351E-07  0.8000E+00
    -18.276  0.2055E-05  0.8000E+00
    -18.143  0.1324E-03  0.8000E+00
    -18.010  0.3639E-02  0.8005E+00
    -17.877  0.4302E-01  0.8062E+00
    -17.744  0.2207E+00  0.8356E+00
    -17.611  0.4948E+00  0.9015E+00
    -17.478  0.4868E+00  0.9663E+00
    -17.344  0.2101E+00  0.9943E+00
    -17.211  0.3963E-01  0.9996E+00
    -17.078  0.3241E-02  0.1000E+01
    -16.945  0.1140E-03  0.1000E+01
    -16.812  0.1711E-05  0.1000E+01
    -16.679  0.1087E-07  0.1000E+01
    -16.546  0.2910E-10  0.1000E+01
    -16.412  0.3269E-13  0.1000E+01
    -16.279  0.9006E-14  0.1000E+01
    -16.146  0.1074E-10  0.1000E+01
    -16.013  0.5309E-08  0.1000E+01
    -15.880  0.1104E-05  0.1000E+01
    -15.747  0.9695E-04  0.1000E+01
    -15.614  0.3625E-02  0.1000E+01
    -15.480  0.5812E-01  0.1008E+01
    -15.347  0.4031E+00  0.1062E+01
    -15.214  0.1219E+01  0.1224E+01
    -15.081  0.1615E+01  0.1439E+01
    -14.948  0.9401E+00  0.1564E+01
    -14.815  0.2395E+00  0.1596E+01
    -14.682  0.2653E-01  0.1600E+01
    -14.549  0.1268E-02  0.1600E+01
    -14.415  0.2593E-04  0.1600E+01
    -14.282  0.2251E-06  0.1600E+01
    -14.149  0.8247E-09  0.1600E+01
    -14.016  0.1268E-11  0.1600E+01
    -13.883  0.1001E-14  0.1600E+01
    -13.750  0.0000E+00  0.1600E+01
    -13.617  0.0000E+00  0.1600E+01
    -13.483  0.0000E+00  0.1600E+01
    -13.350  0.0000E+00  0.1600E+01
    -13.217  0.0000E+00  0.1600E+01
    -13.084  0.0000E+00  0.1600E+01
    -12.951  0.0000E+00  0.1600E+01
    -12.818  0.0000E+00  0.1600E+01
    -12.685  0.1668E-15  0.1600E+01
    -12.551  0.1886E-12  0.1600E+01
    -12.418  0.1478E-09  0.1600E+01
    -12.285  0.4856E-07  0.1600E+01
    -12.152  0.6726E-05  0.1600E+01
    -12.019  0.3949E-03  0.1600E+01
    -11.886  0.9904E-02  0.1601E+01
    -11.753  0.1069E+00  0.1616E+01
    -11.620  0.5014E+00  0.1682E+01
    -11.486  0.1030E+01  0.1819E+01
    -11.353  0.9611E+00  0.1947E+01
    -11.220  0.6600E+00  0.2035E+01
    -11.087  0.1111E+01  0.2183E+01
    -10.954  0.1636E+01  0.2401E+01
    -10.821  0.1115E+01  0.2549E+01
    -10.688  0.3338E+00  0.2594E+01
    -10.554  0.4354E-01  0.2600E+01
    -10.421  0.2476E-02  0.2600E+01
    -10.288  0.1167E-02  0.2600E+01
    -10.155  0.2394E-01  0.2603E+01
    -10.022  0.2233E+00  0.2633E+01
     -9.889  0.9052E+00  0.2754E+01
     -9.756  0.1606E+01  0.2967E+01
     -9.622  0.1251E+01  0.3134E+01
     -9.489  0.4274E+00  0.3191E+01
     -9.356  0.6367E-01  0.3199E+01
     -9.223  0.4103E-02  0.3200E+01
     -9.090  0.1134E-03  0.3200E+01
     -8.957  0.1335E-05  0.3200E+01
     -8.824  0.6644E-08  0.3200E+01
     -8.691  0.1391E-10  0.3200E+01
     -8.557  0.1201E-13  0.3200E+01
     -8.424  0.0000E+00  0.3200E+01
     -8.291  0.0000E+00  0.3200E+01
     -8.158  0.0000E+00  0.3200E+01
     -8.025  0.0000E+00  0.3200E+01
     -7.892  0.0000E+00  0.3200E+01
     -7.759  0.0000E+00  0.3200E+01
     -7.625  0.0000E+00  0.3200E+01
     -7.492  0.0000E+00  0.3200E+01
     -7.359  0.0000E+00  0.3200E+01
     -7.226  0.0000E+00  0.3200E+01
     -7.093  0.0000E+00  0.3200E+01
     -6.960  0.0000E+00  0.3200E+01
     -6.827  0.0000E+00  0.3200E+01
     -6.693  0.0000E+00  0.3200E+01
     -6.560  0.0000E+00  0.3200E+01
     -6.427  0.0000E+00  0.3200E+01
     -6.294  0.0000E+00  0.3200E+01
     -6.161  0.0000E+00  0.3200E+01
     -6.028  0.0000E+00  0.3200E+01
     -5.895  0.0000E+00  0.3200E+01
     -5.762  0.0000E+00  0.3200E+01
     -5.628  0.0000E+00  0.3200E+01
     -5.495  0.0000E+00  0.3200E+01
     -5.362  0.0000E+00  0.3200E+01
     -5.229  0.0000E+00  0.3200E+01
     -5.096  0.0000E+00  0.3200E+01
     -4.963  0.0000E+00  0.3200E+01
     -4.830  0.0000E+00  0.3200E+01
     -4.696  0.0000E+00  0.3200E+01
     -4.563  0.0000E+00  0.3200E+01
     -4.430  0.0000E+00  0.3200E+01
     -4.297  0.0000E+00  0.3200E+01
     -4.164  0.0000E+00  0.3200E+01
     -4.031  0.0000E+00  0.3200E+01
     -3.898  0.0000E+00  0.3200E+01
     -3.764  0.0000E+00  0.3200E+01
     -3.631  0.0000E+00  0.3200E+01
     -3.498  0.0000E+00  0.3200E+01
     -3.365  0.0000E+00  0.3200E+01
     -3.232  0.0000E+00  0.3200E+01
     -3.099  0.0000E+00  0.3200E+01
     -2.966  0.0000E+00  0.3200E+01
     -2.833  0.0000E+00  0.3200E+01
     -2.699  0.0000E+00  0.3200E+01
     -2.566  0.0000E+00  0.3200E+01
     -2.433  0.0000E+00  0.3200E+01
     -2.300  0.0000E+00  0.3200E+01
     -2.167  0.0000E+00  0.3200E+01
     -2.034  0.0000E+00  0.3200E+01
     -1.901  0.0000E+00  0.3200E+01
     -1.767  0.0000E+00  0.3200E+01
     -1.634  0.0000E+00  0.3200E+01
     -1.501  0.1668E-15  0.3200E+01
     -1.368  0.2913E-12  0.3200E+01
     -1.235  0.1984E-09  0.3200E+01
     -1.102  0.5674E-07  0.3200E+01
     -0.969  0.6845E-05  0.3200E+01
     -0.835  0.3505E-03  0.3200E+01
     -0.702  0.7674E-02  0.3201E+01
     -0.569  0.7244E-01  0.3211E+01
     -0.436  0.2973E+00  0.3250E+01
     -0.303  0.5341E+00  0.3321E+01
     -0.170  0.4212E+00  0.3377E+01
     -0.037  0.1456E+00  0.3397E+01
      0.097  0.2196E-01  0.3400E+01
      0.230  0.1433E-02  0.3400E+01
      0.363  0.4012E-04  0.3400E+01
      0.496  0.4782E-06  0.3400E+01
      0.629  0.2410E-08  0.3400E+01
      0.762  0.5110E-11  0.3400E+01
      0.895  0.1373E-12  0.3400E+01
      1.028  0.1140E-09  0.3400E+01
      1.162  0.4105E-07  0.3400E+01
      1.295  0.6229E-05  0.3400E+01
      1.428  0.4005E-03  0.3400E+01
      1.561  0.1099E-01  0.3402E+01
      1.694  0.1297E+00  0.3419E+01
      1.827  0.6640E+00  0.3507E+01
      1.960  0.1486E+01  0.3705E+01
      2.094  0.1459E+01  0.3899E+01
      2.227  0.6286E+00  0.3983E+01
      2.360  0.1183E+00  0.3999E+01
      2.493  0.9659E-02  0.4000E+01
      2.626  0.3391E-03  0.4000E+01
      2.759  0.5078E-05  0.4000E+01
      2.892  0.3221E-07  0.4000E+01
      3.026  0.8604E-10  0.4000E+01
      3.159  0.9606E-13  0.4000E+01
      3.292  0.0000E+00  0.4000E+01
      3.425  0.0000E+00  0.4000E+01
      3.558  0.0000E+00  0.4000E+01
      3.691  0.0000E+00  0.4000E+01
      3.824  0.0000E+00  0.4000E+01
      3.957  0.0000E+00  0.4000E+01
