    5    5   10    1
  0.1024000E+03  0.8000000E-09  0.8000000E-09  0.8000000E-09  0.5000000E-15
  1.000000000000000E-004
  CAR 
 unknown system                          
   32    1   20
 
  0.0000000E+00  0.0000000E+00  0.0000000E+00  0.1000000E+01
   1      -33.983527
   2      -31.117497
   3      -31.117497
   4      -31.117497
   5      -17.613316
   6      -15.168632
   7      -15.168632
   8      -15.168632
   9      -11.503453
  10      -11.503453
  11      -11.015410
  12      -11.015410
  13      -11.015410
  14       -9.795995
  15       -9.795995
  16       -9.795995
  17       -0.341324
  18        1.957468
  19        1.957468
  20        1.957468
