       N       E                     dE             d eps       ncg     rms          rms(c)
DAV:   1     0.268009673033E+03    0.26801E+03   -0.11156E+04    56   0.933E+02
DAV:   2     0.162280267927E+02   -0.25178E+03   -0.24673E+03    64   0.233E+02
DAV:   3    -0.268287750245E+02   -0.43057E+02   -0.42994E+02    44   0.114E+02
DAV:   4    -0.275692373221E+02   -0.74046E+00   -0.73915E+00    48   0.167E+01
DAV:   5    -0.275929087866E+02   -0.23671E-01   -0.23667E-01    48   0.257E+00    0.875E+00
DAV:   6    -0.259627921895E+02    0.16301E+01   -0.77765E+00    44   0.194E+01    0.380E+00
DAV:   7    -0.259379145943E+02    0.24878E-01   -0.34445E-01    40   0.469E+00    0.209E+00
DAV:   8    -0.259533565412E+02   -0.15442E-01   -0.45640E-02    56   0.199E+00    0.257E-01
DAV:   9    -0.259543727668E+02   -0.10162E-02   -0.87019E-03    40   0.678E-01    0.108E-01
DAV:  10    -0.259546194171E+02   -0.24665E-03   -0.49991E-04    48   0.231E-01    0.239E-02
DAV:  11    -0.259547253577E+02   -0.10594E-03   -0.71201E-05    24   0.683E-02    0.788E-03
DAV:  12    -0.259548144612E+02   -0.89104E-04   -0.10410E-05    28   0.249E-02
   1 F= -.25954814E+02 E0= -.25954814E+02  d E =-.259548E+02
       N       E                     dE             d eps       ncg     rms          rms(c)
DAV:   1    -0.258379992899E+02    0.11673E+00   -0.50250E+01    48   0.643E+01    0.185E+00
DAV:   2    -0.259173848511E+02   -0.79386E-01   -0.12610E+00    48   0.909E+00    0.918E-01
DAV:   3    -0.259096277947E+02    0.77571E-02   -0.16032E-02    48   0.124E+00    0.552E-01
DAV:   4    -0.259143442780E+02   -0.47165E-02   -0.24186E-02    48   0.123E+00    0.160E-01
DAV:   5    -0.259147654741E+02   -0.42120E-03   -0.15521E-02    48   0.845E-01    0.151E-01
DAV:   6    -0.259141941315E+02    0.57134E-03   -0.24928E-03    48   0.386E-01    0.356E-02
DAV:   7    -0.259142915761E+02   -0.97445E-04   -0.48350E-04    32   0.126E-01
   2 F= -.25914292E+02 E0= -.25914292E+02  d E =0.405229E-01
       N       E                     dE             d eps       ncg     rms          rms(c)
DAV:   1    -0.259517391950E+02   -0.37545E-01   -0.19613E+01    48   0.410E+01    0.105E+00
DAV:   2    -0.259818610173E+02   -0.30122E-01   -0.43917E-01    48   0.521E+00    0.577E-01
DAV:   3    -0.259786637979E+02    0.31972E-02   -0.58903E-03    48   0.763E-01    0.350E-01
DAV:   4    -0.259805797924E+02   -0.19160E-02   -0.14391E-02    48   0.882E-01    0.106E-01
DAV:   5    -0.259804641213E+02    0.11567E-03   -0.95477E-04    44   0.232E-01    0.794E-02
DAV:   6    -0.259803791530E+02    0.84968E-04   -0.15459E-03    40   0.242E-01    0.310E-02
DAV:   7    -0.259804863203E+02   -0.10717E-03   -0.38594E-04    40   0.143E-01    0.492E-02
DAV:   8    -0.259804095591E+02    0.76761E-04   -0.28131E-04    36   0.111E-01
   3 F= -.25980410E+02 E0= -.25980410E+02  d E =-.255951E-01
