 vasp.5.2.12 11Nov11 complex                                                    
  
 executed on             LinuxIFC date 2012.11.03  02:53:42
 running on    1 nodes
 distr:  one band on    1 nodes,    1 groups


--------------------------------------------------------------------------------------------------------


 INCAR:
 POTCAR:   PAW_PBE C 08Apr2002                    
 POTCAR:   PAW_PBE F 08Apr2002                    
 POTCAR:   PAW_PBE C 08Apr2002                    
   VRHFIN =C: s2p2                                                              
   LEXCH  = PE                                                                  
   EATOM  =   147.1560 eV,   10.8157 Ry                                         
                                                                                
   TITEL  = PAW_PBE C 08Apr2002                                                 
   LULTRA =        F    use ultrasoft PP ?                                      
   IUNSCR =        0    unscreen: 0-lin 1-nonlin 2-no                           
   RPACOR =     .000    partial core radius                                     
   POMASS =   12.011; ZVAL   =    4.000    mass and valenz                      
   RCORE  =    1.500    outmost cutoff radius                                   
   RWIGS  =    1.630; RWIGS  =     .863    wigner-seitz radius (au A)           
   ENMAX  =  400.000; ENMIN  =  300.000 eV                                      
   ICORE  =        2    local potential                                         
   LCOR   =        T    correct aug charges                                     
   LPAW   =        T    paw PP                                                  
   EAUG   =  644.873                                                            
   DEXC   =     .000                                                            
   RMAX   =    2.266    core radius for proj-oper                               
   RAUG   =    1.300    factor for augmentation sphere                          
   RDEP   =    1.501    radius for radial grids                                 
   RDEPT  =    1.300    core radius for aug-charge                              
   QCUT   =   -5.516; QGAM   =   11.032    optimization parameters              
                                                                                
   Description                                                                  
     l     E      TYP  RCUT    TYP  RCUT                                        
     0   .000     23  1.200                                                     
     0   .000     23  1.200                                                     
     1   .000     23  1.500                                                     
     1  2.500     23  1.500                                                     
     2   .000      7  1.500                                                     
  local pseudopotential read in
  atomic valenz-charges read in
  non local Contribution for L=           0  read in
    real space projection operators read in
  non local Contribution for L=           0  read in
    real space projection operators read in
  non local Contribution for L=           1  read in
    real space projection operators read in
  non local Contribution for L=           1  read in
    real space projection operators read in
    PAW grid and wavefunctions read in
 
   number of l-projection  operators is LMAX  =           4
   number of lm-projection operators is LMMAX =           8
 
 POTCAR:   PAW_PBE F 08Apr2002                    
   VRHFIN =F: s2p5                                                              
   LEXCH  = PE                                                                  
   EATOM  =   659.4942 eV,   48.4715 Ry                                         
                                                                                
   TITEL  = PAW_PBE F 08Apr2002                                                 
   LULTRA =        F    use ultrasoft PP ?                                      
   IUNSCR =        0    unscreen: 0-lin 1-nonlin 2-no                           
   RPACOR =     .000    partial core radius                                     
   POMASS =   18.998; ZVAL   =    7.000    mass and valenz                      
   RCORE  =    1.520    outmost cutoff radius                                   
   RWIGS  =    1.500; RWIGS  =     .794    wigner-seitz radius (au A)           
   ENMAX  =  400.000; ENMIN  =  300.000 eV                                      
   ICORE  =        2    local potential                                         
   LCOR   =        T    correct aug charges                                     
   LPAW   =        T    paw PP                                                  
   EAUG   =  613.614                                                            
   DEXC   =     .000                                                            
   RMAX   =    2.254    core radius for proj-oper                               
   RAUG   =    1.300    factor for augmentation sphere                          
   RDEP   =    1.539    radius for radial grids                                 
   QCUT   =   -5.545; QGAM   =   11.091    optimization parameters              
                                                                                
   Description                                                                  
     l     E      TYP  RCUT    TYP  RCUT                                        
     0   .000     23  1.200                                                     
     0  -.700     23  1.200                                                     
     1   .000     23  1.520                                                     
     1   .100     23  1.520                                                     
     2   .000      7  1.500                                                     
  local pseudopotential read in
  atomic valenz-charges read in
  non local Contribution for L=           0  read in
    real space projection operators read in
  non local Contribution for L=           0  read in
    real space projection operators read in
  non local Contribution for L=           1  read in
    real space projection operators read in
  non local Contribution for L=           1  read in
    real space projection operators read in
    PAW grid and wavefunctions read in
 
   number of l-projection  operators is LMAX  =           4
   number of lm-projection operators is LMMAX =           8
 
 PAW_PBE C 08Apr2002                    :
 energy of atom  1       EATOM= -147.1560
 kinetic energy error for atom=    0.0288 (will be added to EATOM!!)
 PAW_PBE F 08Apr2002                    :
 energy of atom  2       EATOM= -659.4942
 kinetic energy error for atom=    0.1980 (will be added to EATOM!!)
 
 
 POSCAR:  C  F                                   
  positions in cartesian coordinates
  No initial velocities read in
 exchange correlation table for  LEXCH =        8
   RHO(1)=    0.500       N(1)  =     2000
   RHO(2)=  100.500       N(2)  =     4000
 


--------------------------------------------------------------------------------------------------------


 ion  position               nearest neighbor table
   1  0.000  0.000  0.000-   2 1.33   3 1.33   4 1.33   5 1.33
   2  0.096  0.096  0.096-   1 1.33
   3  0.904  0.904  0.096-   1 1.33
   4  0.904  0.096  0.904-   1 1.33
   5  0.096  0.904  0.904-   1 1.33
 
  LATTYP: Found a simple cubic cell.
 ALAT       =     8.0000000000
  
  Lattice vectors:
  
 A1 = (   8.0000000000,   0.0000000000,   0.0000000000)
 A2 = (   0.0000000000,   8.0000000000,   0.0000000000)
 A3 = (   0.0000000000,   0.0000000000,   8.0000000000)
 Subroutine PRICEL returns:
 Original cell was already a primitive cell.
 

Analysis of symmetry for initial positions (statically):

 Routine SETGRP: Setting up the symmetry group for a 
 simple cubic supercell.


 Subroutine GETGRP returns: Found 24 space group operations
 (whereof 24 operations were pure point group operations)
 out of a pool of 48 trial point group operations.


The static configuration has the point symmetry T_d .

Analysis of symmetry for dynamics (positions and initial velocities):

 Subroutine DYNSYM returns: Found 24 space group operations
 (whereof 24 operations were pure point group operations)
 out of a pool of 24 trial space group operations
 (whereof 24 operations were pure point group operations)
 and found also     1 'primitive' translations


The dynamic configuration has the point symmetry T_d .
 
 
 KPOINTS: KPOINTS created by Atomic Simulation Env

Automatic generation of k-mesh.
 
 Subroutine IBZKPT returns following result:
 ===========================================
 
 Found      1 irreducible k-points:
 
 Following reciprocal coordinates:
            Coordinates               Weight
  0.000000  0.000000  0.000000      1.000000
 
 Following cartesian coordinates:
            Coordinates               Weight
  0.000000  0.000000  0.000000      1.000000
 


--------------------------------------------------------------------------------------------------------




 Dimension of arrays:
   k-points           NKPTS =      1   k-points in BZ     NKDIM =      1   number of bands    NBANDS=     20
   number of dos      NEDOS =    301   number of ions     NIONS =      5
   non local maximal  LDIM  =      4   non local SUM 2l+1 LMDIM =      8
   total plane-waves  NPLWV =  64000
   max r-space proj   IRMAX =      1   max aug-charges    IRDMAX=   1789
   dimension x,y,z NGX =    40 NGY =   40 NGZ =   40
   dimension x,y,z NGXF=    80 NGYF=   80 NGZF=   80
   support grid    NGXF=    80 NGYF=   80 NGZF=   80
   ions per type =               1   4
 NGX,Y,Z   is equivalent  to a cutoff of   8.31,  8.31,  8.31 a.u.
 NGXF,Y,Z  is equivalent  to a cutoff of  16.62, 16.62, 16.62 a.u.


 I would recommend the setting:
   dimension x,y,z NGX =    39 NGY =   39 NGZ =   39
 SYSTEM =  unknown system                          
 POSCAR =   C  F                                   

 Startparameter for this run:
   NWRITE =      2    write-flag & timer
   PREC   = normal    normal or accurate (medium, high low for compatibility)
   ISTART =      0    job   : 0-new  1-cont  2-samecut
   ICHARG =      2    charge: 1-file 2-atom 10-const
   ISPIN  =      1    spin polarized calculation?
   LNONCOLLINEAR =      F non collinear calculations
   LSORBIT =      F    spin-orbit coupling
   INIWAV =      1    electr: 0-lowe 1-rand  2-diag
   LASPH  =      F    aspherical Exc in radial PAW
   METAGGA=      F    non-selfconsistent MetaGGA calc.

 Electronic Relaxation 1
   ENCUT  =  400.0 eV  29.40 Ry    5.42 a.u.  13.05 13.05 13.05*2*pi/ulx,y,z
   ENINI  =  400.0     initial cutoff
   ENAUG  =  644.9 eV  augmentation charge cutoff
   NELM   =     60;   NELMIN=  2; NELMDL= -5     # of ELM steps 
   EDIFF  = 0.1E-03   stopping-criterion for ELM
   LREAL  =      F    real-space projection
   NLSPLINE    = F    spline interpolate recip. space projectors
   LCOMPAT=      F    compatible to vasp.4.4
   GGA_COMPAT  = T    GGA compatible to vasp.4.4-vasp.4.6
   LMAXPAW     = -100 max onsite density
   LMAXMIX     =    2 max onsite mixed and CHGCAR
   VOSKOWN=      0    Vosko Wilk Nusair interpolation
   ROPT   =    0.00000   0.00000
 Ionic relaxation
   EDIFFG = 0.1E-02   stopping-criterion for IOM
   NSW    =     10    number of steps for IOM
   NBLOCK =      1;   KBLOCK =     10    inner block; outer block 
   IBRION =      2    ionic relax: 0-MD 1-quasi-New 2-CG
   NFREE  =      1    steps in history (QN), initial steepest desc. (CG)
   ISIF   =      2    stress and relaxation
   IWAVPR =     11    prediction:  0-non 1-charg 2-wave 3-comb
   ISYM   =      2    0-nonsym 1-usesym 2-fastsym
   LCORR  =      T    Harris-Foulkes like correction to forces

   POTIM  = 0.5000    time-step for ionic-motion
   TEIN   =    0.0    initial temperature
   TEBEG  =    0.0;   TEEND  =   0.0 temperature during run
   SMASS  =  -3.00    Nose mass-parameter (am)
   estimated Nose-frequenzy (Omega)   =  0.10E-29 period in steps =****** mass=  -0.146E-26a.u.
   SCALEE = 1.0000    scale energy and forces
   NPACO  =    256;   APACO  = 16.0  distance and # of slots for P.C.
   PSTRESS=    0.0 pullay stress

  Mass of Ions in am
   POMASS =  12.01 19.00
  Ionic Valenz
   ZVAL   =   4.00  7.00
  Atomic Wigner-Seitz radii
   RWIGS  =  -1.00 -1.00
  virtual crystal weights 
   VCA    =   1.00  1.00
   NELECT =      32.0000    total number of electrons
   NUPDOWN=      -1.0000    fix difference up-down

 DOS related values:
   EMIN   =  10.00;   EMAX   =-10.00  energy-range for DOS
   EFERMI =   0.00
   ISMEAR =     0;   SIGMA  =   0.20  broadening in eV -4-tet -1-fermi 0-gaus

 Electronic relaxation 2 (details)
   IALGO  =     38    algorithm
   LDIAG  =      T    sub-space diagonalisation (order eigenvalues)
   LSUBROT=      T    optimize rotation matrix (better conditioning)
   TURBO    =      0    0=normal 1=particle mesh
   IRESTART =      0    0=no restart 2=restart with 2 vectors
   NREBOOT  =      0    no. of reboots
   NMIN     =      0    reboot dimension
   EREF     =   0.00    reference energy to select bands
   IMIX   =      4    mixing-type and parameters
     AMIX     =   0.40;   BMIX     =  1.00
     AMIX_MAG =   1.60;   BMIX_MAG =  1.00
     AMIN     =   0.10
     WC   =   100.;   INIMIX=   1;  MIXPRE=   1

 Intra band minimization:
   WEIMIN = 0.0010     energy-eigenvalue tresh-hold
   EBREAK =  0.13E-05  absolut break condition
   DEPER  =   0.30     relativ break condition  

   TIME   =   0.40     timestep for ELM

  volume/ion in A,a.u.               =     102.40       691.03
  Fermi-wavevector in a.u.,A,eV,Ry     =   0.649683  1.227723  5.742856  0.422088
  Thomas-Fermi vector in A             =   1.718718
 
 Write flags
   LWAVE  =      T    write WAVECAR
   LCHARG =      T    write CHGCAR
   LVTOT  =      F    write LOCPOT, total local potential
   LVHAR  =      F    write LOCPOT, Hartree potential only
   LELF   =      F    write electronic localiz. function (ELF)
   LORBIT =      0    0 simple, 1 ext, 2 COOP (PROOUT)


 Dipole corrections
   LMONO  =      F    monopole corrections only (constant potential shift)
   LDIPOL =      F    correct potential (dipole corrections)
   IDIPOL =      0    1-x, 2-y, 3-z, 4-all directions 
   EPSILON=  1.0000000 bulk dielectric constant

 Exchange correlation treatment:
   GGA     =    --    GGA type
   LEXCH   =     8    internal setting for exchange type
   VOSKOWN=      0    Vosko Wilk Nusair interpolation
   LHFCALC =     F    Hartree Fock is set to
   LHFONE  =     F    Hartree Fock one center treatment
   AEXX    =    0.0000 exact exchange contribution

 Linear response parameters
   LEPSILON=     F    determine dielectric tensor
   LRPA    =     F    only Hartree local field effects (RPA)
   LNABLA  =     F    use nabla operator in PAW spheres
   LVEL    =     F    velocity operator in full k-point grid
   LINTERFAST=   F  fast interpolation
   KINTER  =     0    interpolate to denser k-point grid
   CSHIFT  =0.1000    complex shift for real part using Kramers Kronig
   OMEGAMAX=  -1.0    maximum frequency
   RTIME   =    0.100 relaxation time in fs

 Orbital magnetization related:
   ORBITALMAG=     F  switch on orbital magnetization
   LCHIMAG   =     F  perturbation theory with respect to B field
   DQ        =  0.001000  dq finite difference perturbation B field



--------------------------------------------------------------------------------------------------------


 conjugate gradient relaxation of ions
 charge density and potential will be updated during run
 non-spin polarized calculation
 Variant of blocked Davidson
 Davidson routine will perform the subspace rotation
 perform sub-space diagonalisation
    after iterative eigenvector-optimisation
 modified Broyden-mixing scheme, WC =      100.0
 initial mixing is a Kerker type mixing with AMIX =  0.4000 and BMIX =      1.0000
 Hartree-type preconditioning will be used
 using additional bands            4
 reciprocal scheme for non local part
 calculate Harris-corrections to forces 
   (improved forces if not selfconsistent)
 use gradient corrections 
 use of overlap-Matrix (Vanderbilt PP)
 Gauss-broadening in eV      SIGMA  =   0.20


--------------------------------------------------------------------------------------------------------


  energy-cutoff  :      400.00
  volume of cell :      512.00
      direct lattice vectors                 reciprocal lattice vectors
     8.000000000  0.000000000  0.000000000     0.125000000  0.000000000  0.000000000
     0.000000000  8.000000000  0.000000000     0.000000000  0.125000000  0.000000000
     0.000000000  0.000000000  8.000000000     0.000000000  0.000000000  0.125000000

  length of vectors
     8.000000000  8.000000000  8.000000000     0.125000000  0.125000000  0.125000000


 
 k-points in units of 2pi/SCALE and weight: KPOINTS created by Atomic Simulation Env
   0.00000000  0.00000000  0.00000000       1.000
 
 k-points in reciprocal lattice and weights: KPOINTS created by Atomic Simulation Env
   0.00000000  0.00000000  0.00000000       1.000
 
 position of ions in fractional coordinates (direct lattice) 
   0.00000000  0.00000000  0.00000000
   0.09592950  0.09592950  0.09592950
   0.90407050  0.90407050  0.09592950
   0.90407050  0.09592950  0.90407050
   0.09592950  0.90407050  0.90407050
 
 position of ions in cartesian coordinates  (Angst):
   0.00000000  0.00000000  0.00000000
   0.76743600  0.76743600  0.76743600
   7.23256400  7.23256400  0.76743600
   7.23256400  0.76743600  7.23256400
   0.76743600  7.23256400  7.23256400
 


--------------------------------------------------------------------------------------------------------


 k-point  1 :  0.00000.00000.0000  plane waves:    9315

 maximum and minimum number of plane-waves per node :      9315     9315

 maximum number of plane-waves:      9315
 maximum index in each direction: 
   IXMAX=   13   IYMAX=   13   IZMAX=   13
   IXMIN=  -13   IYMIN=  -13   IZMIN=  -13

 WARNING: aliasing errors must be expected set NGX to  54 to avoid them
 WARNING: aliasing errors must be expected set NGY to  54 to avoid them
 WARNING: aliasing errors must be expected set NGZ to  54 to avoid them
 aliasing errors are usually negligible using standard VASP settings
 and one can safely disregard these warnings

 serial   3D FFT for wavefunctions
 parallel 3D FFT for charge:
    minimum data exchange during FFTs selected (reduces bandwidth)


 total amount of memory used by VASP on root node    84578. kBytes
========================================================================

   base      :      30000. kBytes
   nonl-proj :       1937. kBytes
   fftplans  :      17864. kBytes
   grid      :      31769. kBytes
   one-center:         15. kBytes
   wavefun   :       2993. kBytes
 
 Broyden mixing: mesh for mixing (old mesh)
   NGX = 27   NGY = 27   NGZ = 27
  (NGX  = 80   NGY  = 80   NGZ  = 80)
  gives a total of  19683 points

 initial charge density was supplied:
 charge density of overlapping atoms calculated
 number of electron      32.0000000 magnetization 
 keeping initial charge density in first step


--------------------------------------------------------------------------------------------------------


 Maximum index for augmentation-charges         1538 (set IRDMAX)


--------------------------------------------------------------------------------------------------------


 First call to EWALD:  gamma=   0.222
 Maximum number of real-space cells 3x 3x 3
 Maximum number of reciprocal cells 3x 3x 3

    FEWALD:  cpu time    0.00: real time    0.00


----------------------------------------- Iteration    1(   1)  ---------------------------------------


    POTLOK:  cpu time    0.79: real time    0.79
    SETDIJ:  cpu time    0.01: real time    0.01
     EDDAV:  cpu time    1.00: real time    1.00
       DOS:  cpu time    0.00: real time    0.00
    --------------------------------------------
      LOOP:  cpu time    1.80: real time    1.82

 eigenvalue-minimisations  :    56
 total energy-change (2. order) : 0.2680097E+03  (-0.1115600E+04)
 number of electron      32.0000000 magnetization 
 augmentation part       32.0000000 magnetization 

 Free energy of the ion-electron system (eV)
  ---------------------------------------------------
  alpha Z        PSCENC =         7.54128431
  Ewald energy   TEWEN  =       639.40154998
  -1/2 Hartree   DENC   =     -3017.86676478
  -exchange  EXHF       =         0.00000000
  -V(xc)+E(xc)   XCENC  =       162.93152734
  PAW double counting   =      1763.54531609    -1785.13761353
  entropy T*S    EENTRO =        -0.02989947
  eigenvalues    EBANDS =      -286.68789756
  atomic energy  EATOM  =      2784.31217065
  ---------------------------------------------------
  free energy    TOTEN  =       268.00967303 eV

  energy without entropy =      268.03957251  energy(sigma->0) =      268.02462277


--------------------------------------------------------------------------------------------------------




----------------------------------------- Iteration    1(   2)  ---------------------------------------


     EDDAV:  cpu time    1.11: real time    1.11
       DOS:  cpu time    0.00: real time    0.00
    --------------------------------------------
      LOOP:  cpu time    1.11: real time    1.13

 eigenvalue-minimisations  :    64
 total energy-change (2. order) :-0.2517816E+03  (-0.2467337E+03)
 number of electron      32.0000000 magnetization 
 augmentation part       32.0000000 magnetization 

 Free energy of the ion-electron system (eV)
  ---------------------------------------------------
  alpha Z        PSCENC =         7.54128431
  Ewald energy   TEWEN  =       639.40154998
  -1/2 Hartree   DENC   =     -3017.86676478
  -exchange  EXHF       =         0.00000000
  -V(xc)+E(xc)   XCENC  =       162.93152734
  PAW double counting   =      1763.54531609    -1785.13761353
  entropy T*S    EENTRO =         0.00000000
  eigenvalues    EBANDS =      -538.49944327
  atomic energy  EATOM  =      2784.31217065
  ---------------------------------------------------
  free energy    TOTEN  =        16.22802679 eV

  energy without entropy =       16.22802679  energy(sigma->0) =       16.22802679


--------------------------------------------------------------------------------------------------------




----------------------------------------- Iteration    1(   3)  ---------------------------------------


     EDDAV:  cpu time    0.83: real time    0.83
       DOS:  cpu time    0.00: real time    0.00
    --------------------------------------------
      LOOP:  cpu time    0.83: real time    0.84

 eigenvalue-minimisations  :    44
 total energy-change (2. order) :-0.4305680E+02  (-0.4299350E+02)
 number of electron      32.0000000 magnetization 
 augmentation part       32.0000000 magnetization 

 Free energy of the ion-electron system (eV)
  ---------------------------------------------------
  alpha Z        PSCENC =         7.54128431
  Ewald energy   TEWEN  =       639.40154998
  -1/2 Hartree   DENC   =     -3017.86676478
  -exchange  EXHF       =         0.00000000
  -V(xc)+E(xc)   XCENC  =       162.93152734
  PAW double counting   =      1763.54531609    -1785.13761353
  entropy T*S    EENTRO =         0.00000000
  eigenvalues    EBANDS =      -581.55624509
  atomic energy  EATOM  =      2784.31217065
  ---------------------------------------------------
  free energy    TOTEN  =       -26.82877502 eV

  energy without entropy =      -26.82877502  energy(sigma->0) =      -26.82877502


--------------------------------------------------------------------------------------------------------




----------------------------------------- Iteration    1(   4)  ---------------------------------------


     EDDAV:  cpu time    0.89: real time    0.89
       DOS:  cpu time    0.00: real time    0.00
    --------------------------------------------
      LOOP:  cpu time    0.89: real time    0.90

 eigenvalue-minimisations  :    48
 total energy-change (2. order) :-0.7404623E+00  (-0.7391463E+00)
 number of electron      32.0000000 magnetization 
 augmentation part       32.0000000 magnetization 

 Free energy of the ion-electron system (eV)
  ---------------------------------------------------
  alpha Z        PSCENC =         7.54128431
  Ewald energy   TEWEN  =       639.40154998
  -1/2 Hartree   DENC   =     -3017.86676478
  -exchange  EXHF       =         0.00000000
  -V(xc)+E(xc)   XCENC  =       162.93152734
  PAW double counting   =      1763.54531609    -1785.13761353
  entropy T*S    EENTRO =         0.00000000
  eigenvalues    EBANDS =      -582.29670739
  atomic energy  EATOM  =      2784.31217065
  ---------------------------------------------------
  free energy    TOTEN  =       -27.56923732 eV

  energy without entropy =      -27.56923732  energy(sigma->0) =      -27.56923732


--------------------------------------------------------------------------------------------------------




----------------------------------------- Iteration    1(   5)  ---------------------------------------


     EDDAV:  cpu time    0.88: real time    0.89
       DOS:  cpu time    0.00: real time    0.00
    CHARGE:  cpu time    0.14: real time    0.14
    MIXING:  cpu time    0.03: real time    0.03
    --------------------------------------------
      LOOP:  cpu time    1.05: real time    1.08

 eigenvalue-minimisations  :    48
 total energy-change (2. order) :-0.2367146E-01  (-0.2366690E-01)
 number of electron      31.9999761 magnetization 
 augmentation part        5.4550860 magnetization 

 Broyden mixing:
  rms(total) = 0.87549E+00    rms(broyden)= 0.87223E+00
  rms(prec ) = 0.11890E+01
  weight for this iteration     100.00

 Free energy of the ion-electron system (eV)
  ---------------------------------------------------
  alpha Z        PSCENC =         7.54128431
  Ewald energy   TEWEN  =       639.40154998
  -1/2 Hartree   DENC   =     -3017.86676478
  -exchange  EXHF       =         0.00000000
  -V(xc)+E(xc)   XCENC  =       162.93152734
  PAW double counting   =      1763.54531609    -1785.13761353
  entropy T*S    EENTRO =         0.00000000
  eigenvalues    EBANDS =      -582.32037885
  atomic energy  EATOM  =      2784.31217065
  ---------------------------------------------------
  free energy    TOTEN  =       -27.59290879 eV

  energy without entropy =      -27.59290879  energy(sigma->0) =      -27.59290879


--------------------------------------------------------------------------------------------------------




----------------------------------------- Iteration    1(   6)  ---------------------------------------


    POTLOK:  cpu time    0.74: real time    0.74
    SETDIJ:  cpu time    0.01: real time    0.01
     EDDAV:  cpu time    0.83: real time    0.83
       DOS:  cpu time    0.00: real time    0.00
    CHARGE:  cpu time    0.13: real time    0.13
    MIXING:  cpu time    0.03: real time    0.03
    --------------------------------------------
      LOOP:  cpu time    1.74: real time    2.16

 eigenvalue-minimisations  :    44
 total energy-change (2. order) : 0.1630117E+01  (-0.7776549E+00)
 number of electron      31.9999775 magnetization 
 augmentation part        5.1682452 magnetization 

 Broyden mixing:
  rms(total) = 0.37956E+00    rms(broyden)= 0.37866E+00
  rms(prec ) = 0.42763E+00
  weight for this iteration     100.00

 eigenvalues of (default mixing * dielectric matrix)
  average eigenvalue GAMMA=   1.0744
  1.0744

 Free energy of the ion-electron system (eV)
  ---------------------------------------------------
  alpha Z        PSCENC =         7.54128431
  Ewald energy   TEWEN  =       639.40154998
  -1/2 Hartree   DENC   =     -3043.53046127
  -exchange  EXHF       =         0.00000000
  -V(xc)+E(xc)   XCENC  =       164.99474953
  PAW double counting   =      1899.60497193    -1922.24464800
  entropy T*S    EENTRO =         0.00000000
  eigenvalues    EBANDS =      -556.04240933
  atomic energy  EATOM  =      2784.31217065
  ---------------------------------------------------
  free energy    TOTEN  =       -25.96279219 eV

  energy without entropy =      -25.96279219  energy(sigma->0) =      -25.96279219


--------------------------------------------------------------------------------------------------------




----------------------------------------- Iteration    1(   7)  ---------------------------------------


    POTLOK:  cpu time    0.74: real time    0.74
    SETDIJ:  cpu time    0.01: real time    0.01
     EDDAV:  cpu time    0.77: real time    0.77
       DOS:  cpu time    0.00: real time    0.00
    CHARGE:  cpu time    0.13: real time    0.14
    MIXING:  cpu time    0.03: real time    0.03
    --------------------------------------------
      LOOP:  cpu time    1.69: real time    2.22

 eigenvalue-minimisations  :    40
 total energy-change (2. order) : 0.2487760E-01  (-0.3444489E-01)
 number of electron      31.9999776 magnetization 
 augmentation part        5.1656604 magnetization 

 Broyden mixing:
  rms(total) = 0.20950E+00    rms(broyden)= 0.20946E+00
  rms(prec ) = 0.23608E+00
  weight for this iteration     100.00

 eigenvalues of (default mixing * dielectric matrix)
  average eigenvalue GAMMA=   1.6397
  1.0670  2.2125

 Free energy of the ion-electron system (eV)
  ---------------------------------------------------
  alpha Z        PSCENC =         7.54128431
  Ewald energy   TEWEN  =       639.40154998
  -1/2 Hartree   DENC   =     -3045.06365095
  -exchange  EXHF       =         0.00000000
  -V(xc)+E(xc)   XCENC  =       165.17868738
  PAW double counting   =      1950.78726752    -1972.96160129
  entropy T*S    EENTRO =         0.00000000
  eigenvalues    EBANDS =      -555.13362220
  atomic energy  EATOM  =      2784.31217065
  ---------------------------------------------------
  free energy    TOTEN  =       -25.93791459 eV

  energy without entropy =      -25.93791459  energy(sigma->0) =      -25.93791459


--------------------------------------------------------------------------------------------------------




----------------------------------------- Iteration    1(   8)  ---------------------------------------


    POTLOK:  cpu time    0.78: real time    0.79
    SETDIJ:  cpu time    0.01: real time    0.01
     EDDAV:  cpu time    1.00: real time    1.00
       DOS:  cpu time    0.00: real time    0.00
    CHARGE:  cpu time    0.13: real time    0.13
    MIXING:  cpu time    0.03: real time    0.03
    --------------------------------------------
      LOOP:  cpu time    1.96: real time    3.56

 eigenvalue-minimisations  :    56
 total energy-change (2. order) :-0.1544195E-01  (-0.4564033E-02)
 number of electron      31.9999775 magnetization 
 augmentation part        5.1744606 magnetization 

 Broyden mixing:
  rms(total) = 0.25709E-01    rms(broyden)= 0.25702E-01
  rms(prec ) = 0.34287E-01
  weight for this iteration     100.00

 eigenvalues of (default mixing * dielectric matrix)
  average eigenvalue GAMMA=   1.5380
  2.4465  1.0838  1.0838

 Free energy of the ion-electron system (eV)
  ---------------------------------------------------
  alpha Z        PSCENC =         7.54128431
  Ewald energy   TEWEN  =       639.40154998
  -1/2 Hartree   DENC   =     -3046.23402689
  -exchange  EXHF       =         0.00000000
  -V(xc)+E(xc)   XCENC  =       165.31220408
  PAW double counting   =      2009.02180687    -2030.73367508
  entropy T*S    EENTRO =         0.00000000
  eigenvalues    EBANDS =      -554.57467047
  atomic energy  EATOM  =      2784.31217065
  ---------------------------------------------------
  free energy    TOTEN  =       -25.95335654 eV

  energy without entropy =      -25.95335654  energy(sigma->0) =      -25.95335654


--------------------------------------------------------------------------------------------------------




----------------------------------------- Iteration    1(   9)  ---------------------------------------


    POTLOK:  cpu time    0.77: real time    0.77
    SETDIJ:  cpu time    0.01: real time    0.01
     EDDAV:  cpu time    0.77: real time    0.77
       DOS:  cpu time    0.00: real time    0.00
    CHARGE:  cpu time    0.13: real time    0.14
    MIXING:  cpu time    0.03: real time    0.03
    --------------------------------------------
      LOOP:  cpu time    1.72: real time    1.74

 eigenvalue-minimisations  :    40
 total energy-change (2. order) :-0.1016226E-02  (-0.8701886E-03)
 number of electron      31.9999775 magnetization 
 augmentation part        5.1673147 magnetization 

 Broyden mixing:
  rms(total) = 0.10808E-01    rms(broyden)= 0.10797E-01
  rms(prec ) = 0.13264E-01
  weight for this iteration     100.00

 eigenvalues of (default mixing * dielectric matrix)
  average eigenvalue GAMMA=   1.6702
  0.9913  0.9913  2.3492  2.3492

 Free energy of the ion-electron system (eV)
  ---------------------------------------------------
  alpha Z        PSCENC =         7.54128431
  Ewald energy   TEWEN  =       639.40154998
  -1/2 Hartree   DENC   =     -3047.27096662
  -exchange  EXHF       =         0.00000000
  -V(xc)+E(xc)   XCENC  =       165.39038958
  PAW double counting   =      2017.07625279    -2038.77323873
  entropy T*S    EENTRO =         0.00000000
  eigenvalues    EBANDS =      -553.63181474
  atomic energy  EATOM  =      2784.31217065
  ---------------------------------------------------
  free energy    TOTEN  =       -25.95437277 eV

  energy without entropy =      -25.95437277  energy(sigma->0) =      -25.95437277


--------------------------------------------------------------------------------------------------------




----------------------------------------- Iteration    1(  10)  ---------------------------------------


    POTLOK:  cpu time    0.77: real time    0.77
    SETDIJ:  cpu time    0.01: real time    0.01
     EDDAV:  cpu time    0.89: real time    0.89
       DOS:  cpu time    0.00: real time    0.00
    CHARGE:  cpu time    0.13: real time    0.13
    MIXING:  cpu time    0.03: real time    0.03
    --------------------------------------------
      LOOP:  cpu time    1.84: real time    1.85

 eigenvalue-minimisations  :    48
 total energy-change (2. order) :-0.2466502E-03  (-0.4999056E-04)
 number of electron      31.9999775 magnetization 
 augmentation part        5.1690494 magnetization 

 Broyden mixing:
  rms(total) = 0.23863E-02    rms(broyden)= 0.23806E-02
  rms(prec ) = 0.32420E-02
  weight for this iteration     100.00

 eigenvalues of (default mixing * dielectric matrix)
  average eigenvalue GAMMA=   1.5859
  2.5977  2.1437  1.0107  1.0107  1.1666

 Free energy of the ion-electron system (eV)
  ---------------------------------------------------
  alpha Z        PSCENC =         7.54128431
  Ewald energy   TEWEN  =       639.40154998
  -1/2 Hartree   DENC   =     -3047.18397899
  -exchange  EXHF       =         0.00000000
  -V(xc)+E(xc)   XCENC  =       165.38161253
  PAW double counting   =      2016.40890129    -2038.09438206
  entropy T*S    EENTRO =         0.00000000
  eigenvalues    EBANDS =      -553.72177713
  atomic energy  EATOM  =      2784.31217065
  ---------------------------------------------------
  free energy    TOTEN  =       -25.95461942 eV

  energy without entropy =      -25.95461942  energy(sigma->0) =      -25.95461942


--------------------------------------------------------------------------------------------------------




----------------------------------------- Iteration    1(  11)  ---------------------------------------


    POTLOK:  cpu time    0.77: real time    0.77
    SETDIJ:  cpu time    0.01: real time    0.01
     EDDAV:  cpu time    0.56: real time    0.56
       DOS:  cpu time    0.00: real time    0.00
    CHARGE:  cpu time    0.13: real time    0.13
    MIXING:  cpu time    0.03: real time    0.03
    --------------------------------------------
      LOOP:  cpu time    1.52: real time    1.53

 eigenvalue-minimisations  :    24
 total energy-change (2. order) :-0.1059406E-03  (-0.7120118E-05)
 number of electron      31.9999775 magnetization 
 augmentation part        5.1691927 magnetization 

 Broyden mixing:
  rms(total) = 0.78793E-03    rms(broyden)= 0.78681E-03
  rms(prec ) = 0.11674E-02
  weight for this iteration     100.00

 eigenvalues of (default mixing * dielectric matrix)
  average eigenvalue GAMMA=   1.6964
  2.4882  2.4882  2.1045  1.0035  1.0035  1.0908

 Free energy of the ion-electron system (eV)
  ---------------------------------------------------
  alpha Z        PSCENC =         7.54128431
  Ewald energy   TEWEN  =       639.40154998
  -1/2 Hartree   DENC   =     -3047.17804267
  -exchange  EXHF       =         0.00000000
  -V(xc)+E(xc)   XCENC  =       165.38276258
  PAW double counting   =      2016.90441608    -2038.59070912
  entropy T*S    EENTRO =         0.00000000
  eigenvalues    EBANDS =      -553.72815718
  atomic energy  EATOM  =      2784.31217065
  ---------------------------------------------------
  free energy    TOTEN  =       -25.95472536 eV

  energy without entropy =      -25.95472536  energy(sigma->0) =      -25.95472536


--------------------------------------------------------------------------------------------------------




----------------------------------------- Iteration    1(  12)  ---------------------------------------


    POTLOK:  cpu time    0.77: real time    0.77
    SETDIJ:  cpu time    0.01: real time    0.01
     EDDAV:  cpu time    0.62: real time    0.62
       DOS:  cpu time    0.00: real time    0.00
    --------------------------------------------
      LOOP:  cpu time    1.41: real time    1.42

 eigenvalue-minimisations  :    28
 total energy-change (2. order) :-0.8910356E-04  (-0.1041039E-05)
 number of electron      31.9999775 magnetization 
 augmentation part        5.1691927 magnetization 

 Free energy of the ion-electron system (eV)
  ---------------------------------------------------
  alpha Z        PSCENC =         7.54128431
  Ewald energy   TEWEN  =       639.40154998
  -1/2 Hartree   DENC   =     -3047.17305873
  -exchange  EXHF       =         0.00000000
  -V(xc)+E(xc)   XCENC  =       165.38270666
  PAW double counting   =      2016.63140674    -2038.32326373
  entropy T*S    EENTRO =         0.00000000
  eigenvalues    EBANDS =      -553.72761034
  atomic energy  EATOM  =      2784.31217065
  ---------------------------------------------------
  free energy    TOTEN  =       -25.95481446 eV

  energy without entropy =      -25.95481446  energy(sigma->0) =      -25.95481446


--------------------------------------------------------------------------------------------------------




 average (electrostatic) potential at core
  the test charge radii are     0.6991  0.7167
  (the norm of the test charge is              1.0000)
       1 -66.2523       2 -86.9917       3 -86.9917       4 -86.9917       5 -86.9917
 
 
 
 E-fermi :  -8.7369     XC(G=0):  -1.8295     alpha+bet : -0.7008


 k-point   1 :       0.0000    0.0000    0.0000
  band No.  band energies     occupation 
      1     -34.2422      2.00000
      2     -31.2265      2.00000
      3     -31.2265      2.00000
      4     -31.2265      2.00000
      5     -17.5899      2.00000
      6     -15.2627      2.00000
      7     -15.2627      2.00000
      8     -15.2627      2.00000
      9     -11.5673      2.00000
     10     -11.5673      2.00000
     11     -11.0398      2.00000
     12     -11.0398      2.00000
     13     -11.0398      2.00000
     14      -9.7700      2.00000
     15      -9.7700      2.00000
     16      -9.7700      2.00000
     17      -0.3019      0.00000
     18       2.0063      0.00000
     19       2.0064      0.00000
     20       2.0064      0.00000


--------------------------------------------------------------------------------------------------------


 soft charge-density along one line, spin component           1
         0         1         2         3         4         5         6         7         8         9
 total charge-density along one line
 
 pseudopotential strength for first ion, spin component:           1
 10.675   0.034   0.000   0.000   0.000   0.000   0.000   0.000
  0.034  -0.001   0.000   0.000   0.000   0.000   0.000   0.000
  0.000   0.000  -4.792   0.000   0.000  -0.006   0.000   0.000
  0.000   0.000   0.000  -4.792   0.000   0.000  -0.006   0.000
  0.000   0.000   0.000   0.000  -4.792   0.000   0.000  -0.006
  0.000   0.000  -0.006   0.000   0.000  -0.783   0.000   0.000
  0.000   0.000   0.000  -0.006   0.000   0.000  -0.783   0.000
  0.000   0.000   0.000   0.000  -0.006   0.000   0.000  -0.783
 total augmentation occupancy for first ion, spin component:           1
  1.355  -0.893   0.000   0.000   0.000   0.000   0.000   0.000
 -0.893   1.620   0.000   0.000   0.000   0.000   0.000   0.000
  0.000   0.000   0.962   0.000   0.000   0.189   0.000   0.000
  0.000   0.000   0.000   0.962   0.000   0.000   0.189   0.000
  0.000   0.000   0.000   0.000   0.962   0.000   0.000   0.189
  0.000   0.000   0.189   0.000   0.000   0.056   0.000   0.000
  0.000   0.000   0.000   0.189   0.000   0.000   0.056   0.000
  0.000   0.000   0.000   0.000   0.189   0.000   0.000   0.056


------------------------ aborting loop because EDIFF is reached ----------------------------------------


    CHARGE:  cpu time    0.14: real time    0.14
    FORLOC:  cpu time    0.08: real time    0.08
    FORNL :  cpu time    0.18: real time    0.18
    STRESS:  cpu time    0.40: real time    0.40
    FORHAR:  cpu time    0.25: real time    0.25
    MIXING:  cpu time    0.03: real time    0.03

  FORCE on cell =-STRESS in cart. coord.  units (eV):
  Direction    XX          YY          ZZ          XY          YZ          ZX
  --------------------------------------------------------------------------------------
  Alpha Z     7.54128     7.54128     7.54128
  Ewald     213.13355   213.13355   213.13355     0.00000     0.00000     0.00000
  Hartree  1015.73301  1015.73301  1015.73301     0.00000     0.00000     0.00000
  E(xc)    -174.72801  -174.72801  -174.72801     0.00000     0.00000     0.00000
  Local   -1683.81423 -1683.81423 -1683.81423     0.00000     0.00000     0.00000
  n-local  -163.77283  -163.77283  -163.77284     0.00000     0.00000     0.00000
  augment    71.14638    71.14638    71.14638     0.00000     0.00000    -0.00001
  Kinetic   711.66768   711.66766   711.66768     0.00000     0.00000     0.00000
  Fock        0.00000     0.00000     0.00000     0.00000     0.00000     0.00000
  -------------------------------------------------------------------------------------
  Total      -3.09317    -3.09317    -3.09317     0.00000     0.00000     0.00000
  in kB      -9.67932    -9.67932    -9.67932     0.00000     0.00000     0.00000
  external pressure =       -9.68 kB  Pullay stress =        0.00 kB


 VOLUME and BASIS-vectors are now :
 -----------------------------------------------------------------------------
  energy-cutoff  :      400.00
  volume of cell :      512.00
      direct lattice vectors                 reciprocal lattice vectors
     8.000000000  0.000000000  0.000000000     0.125000000  0.000000000  0.000000000
     0.000000000  8.000000000  0.000000000     0.000000000  0.125000000  0.000000000
     0.000000000  0.000000000  8.000000000     0.000000000  0.000000000  0.125000000

  length of vectors
     8.000000000  8.000000000  8.000000000     0.125000000  0.125000000  0.125000000


 FORCES acting on ions
    electron-ion (+dipol)            ewald-force                    non-local-force                 convergence-correction
 -----------------------------------------------------------------------------------------------
   0.535E-17 -.558E-14 -.570E-14   -.164E-12 -.633E-13 -.350E-13   0.000E+00 -.993E-23 0.265E-22   0.666E-13 0.741E-13 0.205E-13
   -.290E+03 -.290E+03 -.290E+03   0.324E+03 0.324E+03 0.324E+03   -.342E+02 -.342E+02 -.342E+02   -.687E-03 -.687E-03 -.687E-03
   0.290E+03 0.290E+03 -.290E+03   -.324E+03 -.324E+03 0.324E+03   0.342E+02 0.342E+02 -.342E+02   0.687E-03 0.687E-03 -.687E-03
   0.290E+03 -.290E+03 0.290E+03   -.324E+03 0.324E+03 -.324E+03   0.342E+02 -.342E+02 0.342E+02   0.687E-03 -.687E-03 0.687E-03
   -.290E+03 0.290E+03 0.290E+03   0.324E+03 -.324E+03 -.324E+03   -.342E+02 0.342E+02 0.342E+02   -.687E-03 0.687E-03 0.687E-03
 -----------------------------------------------------------------------------------------------
   0.398E-05 0.398E-05 0.166E-06   0.568E-13 0.000E+00 0.000E+00   -.711E-14 -.711E-14 0.000E+00   0.498E-12 0.577E-12 0.176E-12
 
 
 POSITION                                       TOTAL-FORCE (eV/Angst)
 -----------------------------------------------------------------------------------
      0.00000      0.00000      0.00000         0.000000      0.000000      0.000000
      0.76744      0.76744      0.76744         0.490692      0.490692      0.490692
      7.23256      7.23256      0.76744        -0.490692     -0.490692      0.490692
      7.23256      0.76744      7.23256        -0.490692      0.490692     -0.490692
      0.76744      7.23256      7.23256         0.490692     -0.490692     -0.490692
 -----------------------------------------------------------------------------------
    total drift:                                0.000004      0.000004      0.000000


--------------------------------------------------------------------------------------------------------



  FREE ENERGIE OF THE ION-ELECTRON SYSTEM (eV)
  ---------------------------------------------------
  free  energy   TOTEN  =       -25.954814 eV

  energy  without entropy=      -25.954814  energy(sigma->0) =      -25.954814
 


--------------------------------------------------------------------------------------------------------


    POTLOK:  cpu time    0.79: real time    0.79


--------------------------------------------------------------------------------------------------------




--------------------------------------------------------------------------------------------------------


    WAVPRE:  cpu time    0.16: real time    0.16
    FEWALD:  cpu time    0.00: real time    0.00
    ORTHCH:  cpu time    0.04: real time    0.04
     LOOP+:  cpu time   20.66: real time   23.56


----------------------------------------- Iteration    2(   1)  ---------------------------------------


    POTLOK:  cpu time    0.87: real time    0.87
    SETDIJ:  cpu time    0.01: real time    0.01
     EDDAV:  cpu time    0.96: real time    0.96
       DOS:  cpu time    0.00: real time    0.00
    CHARGE:  cpu time    0.16: real time    0.16
    MIXING:  cpu time    0.03: real time    0.03
    --------------------------------------------
      LOOP:  cpu time    2.03: real time    2.04

 eigenvalue-minimisations  :    48
 total energy-change (2. order) : 0.1167261E+00  (-0.5024989E+01)
 number of electron      32.0000625 magnetization 
 augmentation part        5.1028558 magnetization 

 Broyden mixing:
  rms(total) = 0.18546E+00    rms(broyden)= 0.18360E+00
  rms(prec ) = 0.21596E+00
  weight for this iteration     100.00

 Free energy of the ion-electron system (eV)
  ---------------------------------------------------
  alpha Z        PSCENC =         7.54128431
  Ewald energy   TEWEN  =       550.21694019
  -1/2 Hartree   DENC   =     -2970.25351598
  -exchange  EXHF       =         0.00000000
  -V(xc)+E(xc)   XCENC  =       164.82916005
  PAW double counting   =      2016.66267910    -2038.35397315
  entropy T*S    EENTRO =         0.00000000
  eigenvalues    EBANDS =      -540.79274447
  atomic energy  EATOM  =      2784.31217065
  ---------------------------------------------------
  free energy    TOTEN  =       -25.83799929 eV

  energy without entropy =      -25.83799929  energy(sigma->0) =      -25.83799929


--------------------------------------------------------------------------------------------------------




----------------------------------------- Iteration    2(   2)  ---------------------------------------


    POTLOK:  cpu time    0.82: real time    0.82
    SETDIJ:  cpu time    0.01: real time    0.01
     EDDAV:  cpu time    0.97: real time    0.97
       DOS:  cpu time    0.00: real time    0.00
    CHARGE:  cpu time    0.16: real time    0.16
    MIXING:  cpu time    0.03: real time    0.03
    --------------------------------------------
      LOOP:  cpu time    1.99: real time    2.03

 eigenvalue-minimisations  :    48
 total energy-change (2. order) :-0.7938556E-01  (-0.1260980E+00)
 number of electron      32.0000627 magnetization 
 augmentation part        5.1233506 magnetization 

 Broyden mixing:
  rms(total) = 0.91789E-01    rms(broyden)= 0.91460E-01
  rms(prec ) = 0.11090E+00
  weight for this iteration     100.00

 eigenvalues of (default mixing * dielectric matrix)
  average eigenvalue GAMMA=   0.9009
  0.9009

 Free energy of the ion-electron system (eV)
  ---------------------------------------------------
  alpha Z        PSCENC =         7.54128431
  Ewald energy   TEWEN  =       550.21694019
  -1/2 Hartree   DENC   =     -2963.85340786
  -exchange  EXHF       =         0.00000000
  -V(xc)+E(xc)   XCENC  =       164.48598696
  PAW double counting   =      2000.46012482    -2022.08175926
  entropy T*S    EENTRO =         0.00000000
  eigenvalues    EBANDS =      -546.99872466
  atomic energy  EATOM  =      2784.31217065
  ---------------------------------------------------
  free energy    TOTEN  =       -25.91738485 eV

  energy without entropy =      -25.91738485  energy(sigma->0) =      -25.91738485


--------------------------------------------------------------------------------------------------------




----------------------------------------- Iteration    2(   3)  ---------------------------------------


    POTLOK:  cpu time    0.78: real time    0.78
    SETDIJ:  cpu time    0.01: real time    0.01
     EDDAV:  cpu time    0.97: real time    0.97
       DOS:  cpu time    0.00: real time    0.00
    CHARGE:  cpu time    0.16: real time    0.16
    MIXING:  cpu time    0.03: real time    0.03
    --------------------------------------------
      LOOP:  cpu time    1.95: real time    2.10

 eigenvalue-minimisations  :    48
 total energy-change (2. order) : 0.7757056E-02  (-0.1603204E-02)
 number of electron      32.0000626 magnetization 
 augmentation part        5.1159694 magnetization 

 Broyden mixing:
  rms(total) = 0.55201E-01    rms(broyden)= 0.55164E-01
  rms(prec ) = 0.63502E-01
  weight for this iteration     100.00

 eigenvalues of (default mixing * dielectric matrix)
  average eigenvalue GAMMA=   1.5873
  0.9549  2.2197

 Free energy of the ion-electron system (eV)
  ---------------------------------------------------
  alpha Z        PSCENC =         7.54128431
  Ewald energy   TEWEN  =       550.21694019
  -1/2 Hartree   DENC   =     -2963.59565450
  -exchange  EXHF       =         0.00000000
  -V(xc)+E(xc)   XCENC  =       164.51422995
  PAW double counting   =      1996.86710101    -2018.46047040
  entropy T*S    EENTRO =         0.00000000
  eigenvalues    EBANDS =      -547.30522901
  atomic energy  EATOM  =      2784.31217065
  ---------------------------------------------------
  free energy    TOTEN  =       -25.90962779 eV

  energy without entropy =      -25.90962779  energy(sigma->0) =      -25.90962779


--------------------------------------------------------------------------------------------------------




----------------------------------------- Iteration    2(   4)  ---------------------------------------


    POTLOK:  cpu time    0.77: real time    0.77
    SETDIJ:  cpu time    0.01: real time    0.01
     EDDAV:  cpu time    0.97: real time    0.97
       DOS:  cpu time    0.00: real time    0.00
    CHARGE:  cpu time    0.16: real time    0.16
    MIXING:  cpu time    0.03: real time    0.03
    --------------------------------------------
      LOOP:  cpu time    1.94: real time    1.96

 eigenvalue-minimisations  :    48
 total energy-change (2. order) :-0.4716483E-02  (-0.2418589E-02)
 number of electron      32.0000625 magnetization 
 augmentation part        5.1069006 magnetization 

 Broyden mixing:
  rms(total) = 0.15967E-01    rms(broyden)= 0.15930E-01
  rms(prec ) = 0.23514E-01
  weight for this iteration     100.00

 eigenvalues of (default mixing * dielectric matrix)
  average eigenvalue GAMMA=   1.5806
  1.0579  1.8419  1.8419

 Free energy of the ion-electron system (eV)
  ---------------------------------------------------
  alpha Z        PSCENC =         7.54128431
  Ewald energy   TEWEN  =       550.21694019
  -1/2 Hartree   DENC   =     -2962.95810686
  -exchange  EXHF       =         0.00000000
  -V(xc)+E(xc)   XCENC  =       164.51894565
  PAW double counting   =      1989.38293714    -2010.87103939
  entropy T*S    EENTRO =         0.00000000
  eigenvalues    EBANDS =      -548.05747596
  atomic energy  EATOM  =      2784.31217065
  ---------------------------------------------------
  free energy    TOTEN  =       -25.91434428 eV

  energy without entropy =      -25.91434428  energy(sigma->0) =      -25.91434428


--------------------------------------------------------------------------------------------------------




----------------------------------------- Iteration    2(   5)  ---------------------------------------


    POTLOK:  cpu time    0.88: real time    0.88
    SETDIJ:  cpu time    0.01: real time    0.01
     EDDAV:  cpu time    1.04: real time    1.04
       DOS:  cpu time    0.00: real time    0.00
    CHARGE:  cpu time    0.18: real time    0.18
    MIXING:  cpu time    0.03: real time    0.03
    --------------------------------------------
      LOOP:  cpu time    2.15: real time    2.15

 eigenvalue-minimisations  :    48
 total energy-change (2. order) :-0.4211961E-03  (-0.1552105E-02)
 number of electron      32.0000626 magnetization 
 augmentation part        5.1186146 magnetization 

 Broyden mixing:
  rms(total) = 0.15126E-01    rms(broyden)= 0.15100E-01
  rms(prec ) = 0.21679E-01
  weight for this iteration     100.00

 eigenvalues of (default mixing * dielectric matrix)
  average eigenvalue GAMMA=   1.2979
  2.1833  0.9950  1.0067  1.0067

 Free energy of the ion-electron system (eV)
  ---------------------------------------------------
  alpha Z        PSCENC =         7.54128431
  Ewald energy   TEWEN  =       550.21694019
  -1/2 Hartree   DENC   =     -2962.51811288
  -exchange  EXHF       =         0.00000000
  -V(xc)+E(xc)   XCENC  =       164.46853946
  PAW double counting   =      1986.79861247    -2008.22985226
  entropy T*S    EENTRO =         0.00000000
  eigenvalues    EBANDS =      -548.50434742
  atomic energy  EATOM  =      2784.31217065
  ---------------------------------------------------
  free energy    TOTEN  =       -25.91476547 eV

  energy without entropy =      -25.91476547  energy(sigma->0) =      -25.91476547


--------------------------------------------------------------------------------------------------------




----------------------------------------- Iteration    2(   6)  ---------------------------------------


    POTLOK:  cpu time    0.87: real time    0.87
    SETDIJ:  cpu time    0.01: real time    0.01
     EDDAV:  cpu time    1.07: real time    1.07
       DOS:  cpu time    0.00: real time    0.00
    CHARGE:  cpu time    0.18: real time    0.18
    MIXING:  cpu time    0.04: real time    0.04
    --------------------------------------------
      LOOP:  cpu time    2.17: real time    2.19

 eigenvalue-minimisations  :    48
 total energy-change (2. order) : 0.5713426E-03  (-0.2492774E-03)
 number of electron      32.0000626 magnetization 
 augmentation part        5.1139245 magnetization 

 Broyden mixing:
  rms(total) = 0.35644E-02    rms(broyden)= 0.35567E-02
  rms(prec ) = 0.47163E-02
  weight for this iteration     100.00

 eigenvalues of (default mixing * dielectric matrix)
  average eigenvalue GAMMA=   1.4030
  2.4744  1.3922  1.0712  1.0385  1.0385

 Free energy of the ion-electron system (eV)
  ---------------------------------------------------
  alpha Z        PSCENC =         7.54128431
  Ewald energy   TEWEN  =       550.21694019
  -1/2 Hartree   DENC   =     -2962.72070791
  -exchange  EXHF       =         0.00000000
  -V(xc)+E(xc)   XCENC  =       164.49312671
  PAW double counting   =      1987.27868739    -2008.73075114
  entropy T*S    EENTRO =         0.00000000
  eigenvalues    EBANDS =      -548.30494434
  atomic energy  EATOM  =      2784.31217065
  ---------------------------------------------------
  free energy    TOTEN  =       -25.91419413 eV

  energy without entropy =      -25.91419413  energy(sigma->0) =      -25.91419413


--------------------------------------------------------------------------------------------------------




----------------------------------------- Iteration    2(   7)  ---------------------------------------


    POTLOK:  cpu time    0.89: real time    0.90
    SETDIJ:  cpu time    0.01: real time    0.01
     EDDAV:  cpu time    0.77: real time    0.77
       DOS:  cpu time    0.00: real time    0.00
    --------------------------------------------
      LOOP:  cpu time    1.68: real time    2.08

 eigenvalue-minimisations  :    32
 total energy-change (2. order) :-0.9744461E-04  (-0.4834976E-04)
 number of electron      32.0000626 magnetization 
 augmentation part        5.1139245 magnetization 

 Free energy of the ion-electron system (eV)
  ---------------------------------------------------
  alpha Z        PSCENC =         7.54128431
  Ewald energy   TEWEN  =       550.21694019
  -1/2 Hartree   DENC   =     -2962.70022050
  -exchange  EXHF       =         0.00000000
  -V(xc)+E(xc)   XCENC  =       164.49576241
  PAW double counting   =      1986.98157146    -2008.43338088
  entropy T*S    EENTRO =         0.00000000
  eigenvalues    EBANDS =      -548.32841921
  atomic energy  EATOM  =      2784.31217065
  ---------------------------------------------------
  free energy    TOTEN  =       -25.91429158 eV

  energy without entropy =      -25.91429158  energy(sigma->0) =      -25.91429158


--------------------------------------------------------------------------------------------------------




 average (electrostatic) potential at core
  the test charge radii are     0.6991  0.7167
  (the norm of the test charge is              1.0000)
       1 -66.3522       2 -86.9604       3 -86.9604       4 -86.9604       5 -86.9604
 
 
 
 E-fermi :  -8.8726     XC(G=0):  -1.7138     alpha+bet : -0.7008


 k-point   1 :       0.0000    0.0000    0.0000
  band No.  band energies     occupation 
      1     -33.5598      2.00000
      2     -30.9352      2.00000
      3     -30.9352      2.00000
      4     -30.9352      2.00000
      5     -17.6378      2.00000
      6     -15.0016      2.00000
      7     -15.0016      2.00000
      8     -15.0016      2.00000
      9     -11.3925      2.00000
     10     -11.3925      2.00000
     11     -10.9650      2.00000
     12     -10.9650      2.00000
     13     -10.9650      2.00000
     14      -9.8254      2.00000
     15      -9.8254      2.00000
     16      -9.8254      2.00000
     17      -0.3349      0.00000
     18       1.8763      0.00000
     19       1.8763      0.00000
     20       1.8763      0.00000


--------------------------------------------------------------------------------------------------------


 soft charge-density along one line, spin component           1
         0         1         2         3         4         5         6         7         8         9
 total charge-density along one line
 
 pseudopotential strength for first ion, spin component:           1
 10.673   0.034   0.000   0.000   0.000   0.000   0.000   0.000
  0.034  -0.001   0.000   0.000   0.000   0.000   0.000   0.000
  0.000   0.000  -4.801   0.000   0.000  -0.002   0.000   0.000
  0.000   0.000   0.000  -4.801   0.000   0.000  -0.002   0.000
  0.000   0.000   0.000   0.000  -4.801   0.000   0.000  -0.002
  0.000   0.000  -0.002   0.000   0.000  -0.783   0.000   0.000
  0.000   0.000   0.000  -0.002   0.000   0.000  -0.783   0.000
  0.000   0.000   0.000   0.000  -0.002   0.000   0.000  -0.783
 total augmentation occupancy for first ion, spin component:           1
  1.348  -0.740   0.000   0.000   0.000   0.000   0.000   0.000
 -0.740   1.279   0.000   0.000   0.000   0.000   0.000   0.000
  0.000   0.000   0.910   0.000   0.000   0.166   0.000   0.000
  0.000   0.000   0.000   0.910   0.000   0.000   0.166   0.000
  0.000   0.000   0.000   0.000   0.910   0.000   0.000   0.166
  0.000   0.000   0.166   0.000   0.000   0.046   0.000   0.000
  0.000   0.000   0.000   0.166   0.000   0.000   0.046   0.000
  0.000   0.000   0.000   0.000   0.166   0.000   0.000   0.046


------------------------ aborting loop because EDIFF is reached ----------------------------------------


    CHARGE:  cpu time    0.18: real time    0.18
    FORLOC:  cpu time    0.09: real time    0.09
    FORNL :  cpu time    0.18: real time    0.18
    STRESS:  cpu time    0.41: real time    0.42
    FORHAR:  cpu time    0.30: real time    0.30
    MIXING:  cpu time    0.04: real time    0.04

  FORCE on cell =-STRESS in cart. coord.  units (eV):
  Direction    XX          YY          ZZ          XY          YZ          ZX
  --------------------------------------------------------------------------------------
  Alpha Z     7.54128     7.54128     7.54128
  Ewald     183.40535   183.40535   183.40535     0.00000     0.00000     0.00000
  Hartree   987.51526   987.51526   987.51526     0.00000     0.00000     0.00000
  E(xc)    -173.89402  -173.89402  -173.89402     0.00000     0.00000     0.00000
  Local   -1627.28792 -1627.28792 -1627.28792     0.00000     0.00000     0.00000
  n-local  -162.51926  -162.51926  -162.51926     0.00000     0.00000     0.00000
  augment    70.87634    70.87634    70.87634     0.00000     0.00000    -0.00001
  Kinetic   707.46023   707.46023   707.46023     0.00000     0.00000     0.00000
  Fock        0.00000     0.00000     0.00000     0.00000     0.00000     0.00000
  -------------------------------------------------------------------------------------
  Total      -6.90274    -6.90274    -6.90274     0.00000     0.00000     0.00000
  in kB     -21.60041   -21.60041   -21.60041     0.00000     0.00000     0.00000
  external pressure =      -21.60 kB  Pullay stress =        0.00 kB


 VOLUME and BASIS-vectors are now :
 -----------------------------------------------------------------------------
  energy-cutoff  :      400.00
  volume of cell :      512.00
      direct lattice vectors                 reciprocal lattice vectors
     8.000000000  0.000000000  0.000000000     0.125000000  0.000000000  0.000000000
     0.000000000  8.000000000  0.000000000     0.000000000  0.125000000  0.000000000
     0.000000000  0.000000000  8.000000000     0.000000000  0.000000000  0.125000000

  length of vectors
     8.000000000  8.000000000  8.000000000     0.125000000  0.125000000  0.125000000


 FORCES acting on ions
    electron-ion (+dipol)            ewald-force                    non-local-force                 convergence-correction
 -----------------------------------------------------------------------------------------------
   0.112E-13 0.133E-13 -.244E-13   0.310E-13 -.165E-13 -.592E-13   0.000E+00 0.165E-23 -.165E-23   0.231E-13 0.121E-12 0.143E-12
   -.272E+03 -.272E+03 -.272E+03   0.304E+03 0.304E+03 0.304E+03   -.323E+02 -.323E+02 -.323E+02   0.337E-01 0.337E-01 0.337E-01
   0.272E+03 0.272E+03 -.272E+03   -.304E+03 -.304E+03 0.304E+03   0.323E+02 0.323E+02 -.323E+02   -.337E-01 -.337E-01 0.337E-01
   0.272E+03 -.272E+03 0.272E+03   -.304E+03 0.304E+03 -.304E+03   0.323E+02 -.323E+02 0.323E+02   -.337E-01 0.337E-01 -.337E-01
   -.272E+03 0.272E+03 0.272E+03   0.304E+03 -.304E+03 -.304E+03   -.323E+02 0.323E+02 0.323E+02   0.337E-01 -.337E-01 -.337E-01
 -----------------------------------------------------------------------------------------------
   0.194E-05 0.194E-05 0.154E-07   0.000E+00 -.568E-13 0.568E-13   0.000E+00 0.711E-14 0.000E+00   0.204E-12 0.830E-12 0.106E-11
 
 
 POSITION                                       TOTAL-FORCE (eV/Angst)
 -----------------------------------------------------------------------------------
      0.00000      0.00000      0.00000         0.000000      0.000000      0.000000
      0.79111      0.79111      0.79111        -0.722853     -0.722853     -0.722853
      7.20889      7.20889      0.79111         0.722853      0.722853     -0.722853
      7.20889      0.79111      7.20889         0.722853     -0.722853      0.722853
      0.79111      7.20889      7.20889        -0.722853      0.722853      0.722853
 -----------------------------------------------------------------------------------
    total drift:                                0.000002      0.000002      0.000000


--------------------------------------------------------------------------------------------------------



  FREE ENERGIE OF THE ION-ELECTRON SYSTEM (eV)
  ---------------------------------------------------
  free  energy   TOTEN  =       -25.914292 eV

  energy  without entropy=      -25.914292  energy(sigma->0) =      -25.914292
 
 d Force =-0.3297467E-01[-0.205E+00, 0.139E+00]  d Energy =-0.4052289E-01 0.755E-02
 d Force = 0.8922848E+02[ 0.863E+02, 0.922E+02]  d Ewald  = 0.8918461E+02 0.439E-01


--------------------------------------------------------------------------------------------------------


    POTLOK:  cpu time    0.87: real time    1.27


--------------------------------------------------------------------------------------------------------


 Steepest descent step on ions:
 trial-energy change:    0.040523  1 .order    0.032975   -0.139390    0.205339
  (g-gl).g = 0.139E+00      g.g   = 0.139E+00  gl.gl    = 0.000E+00
 g(Force)  = 0.139E+00   g(Stress)= 0.000E+00 ortho     = 0.000E+00
 gamma     =   0.00000
 trial     =   1.00000
 opt step  =   0.37360  (harmonic =   0.40435) maximal distance =0.00884399
 next E    =   -25.980459   (d E  =  -0.02564)


--------------------------------------------------------------------------------------------------------


    WAVPRE:  cpu time    0.18: real time    0.18
    FEWALD:  cpu time    0.00: real time    0.00
    ORTHCH:  cpu time    0.04: real time    0.04
     LOOP+:  cpu time   16.23: real time   19.04


----------------------------------------- Iteration    3(   1)  ---------------------------------------


    POTLOK:  cpu time    0.86: real time    0.86
    SETDIJ:  cpu time    0.01: real time    0.01
     EDDAV:  cpu time    1.03: real time    1.04
       DOS:  cpu time    0.00: real time    0.00
    CHARGE:  cpu time    0.17: real time    0.17
    MIXING:  cpu time    0.03: real time    0.03
    --------------------------------------------
      LOOP:  cpu time    2.11: real time    2.11

 eigenvalue-minimisations  :    48
 total energy-change (2. order) :-0.3754506E-01  (-0.1961311E+01)
 number of electron      32.0000046 magnetization 
 augmentation part        5.1551388 magnetization 

 Broyden mixing:
  rms(total) = 0.10528E+00    rms(broyden)= 0.10394E+00
  rms(prec ) = 0.12010E+00
  weight for this iteration     100.00

 Free energy of the ion-electron system (eV)
  ---------------------------------------------------
  alpha Z        PSCENC =         7.54128431
  Ewald energy   TEWEN  =       605.38974660
  -1/2 Hartree   DENC   =     -3010.10217788
  -exchange  EXHF       =         0.00000000
  -V(xc)+E(xc)   XCENC  =       164.82595404
  PAW double counting   =      1987.03650495    -2008.49200307
  entropy T*S    EENTRO =         0.00000000
  eigenvalues    EBANDS =      -556.46321881
  atomic energy  EATOM  =      2784.31217065
  ---------------------------------------------------
  free energy    TOTEN  =       -25.95173920 eV

  energy without entropy =      -25.95173919  energy(sigma->0) =      -25.95173919


--------------------------------------------------------------------------------------------------------




----------------------------------------- Iteration    3(   2)  ---------------------------------------


    POTLOK:  cpu time    0.88: real time    0.88
    SETDIJ:  cpu time    0.01: real time    0.01
     EDDAV:  cpu time    1.04: real time    1.04
       DOS:  cpu time    0.00: real time    0.00
    CHARGE:  cpu time    0.17: real time    0.17
    MIXING:  cpu time    0.03: real time    0.03
    --------------------------------------------
      LOOP:  cpu time    2.14: real time    2.14

 eigenvalue-minimisations  :    48
 total energy-change (2. order) :-0.3012182E-01  (-0.4391700E-01)
 number of electron      32.0000047 magnetization 
 augmentation part        5.1448465 magnetization 

 Broyden mixing:
  rms(total) = 0.57741E-01    rms(broyden)= 0.57549E-01
  rms(prec ) = 0.70304E-01
  weight for this iteration     100.00

 eigenvalues of (default mixing * dielectric matrix)
  average eigenvalue GAMMA=   0.9595
  0.9595

 Free energy of the ion-electron system (eV)
  ---------------------------------------------------
  alpha Z        PSCENC =         7.54128431
  Ewald energy   TEWEN  =       605.38974660
  -1/2 Hartree   DENC   =     -3013.25364931
  -exchange  EXHF       =         0.00000000
  -V(xc)+E(xc)   XCENC  =       165.00420018
  PAW double counting   =      1996.69971512    -2018.21291849
  entropy T*S    EENTRO =         0.00000000
  eigenvalues    EBANDS =      -553.46241008
  atomic energy  EATOM  =      2784.31217065
  ---------------------------------------------------
  free energy    TOTEN  =       -25.98186102 eV

  energy without entropy =      -25.98186102  energy(sigma->0) =      -25.98186102


--------------------------------------------------------------------------------------------------------




----------------------------------------- Iteration    3(   3)  ---------------------------------------


    POTLOK:  cpu time    0.90: real time    0.90
    SETDIJ:  cpu time    0.01: real time    0.01
     EDDAV:  cpu time    1.04: real time    1.04
       DOS:  cpu time    0.00: real time    0.00
    CHARGE:  cpu time    0.17: real time    0.17
    MIXING:  cpu time    0.03: real time    0.03
    --------------------------------------------
      LOOP:  cpu time    2.16: real time    2.20

 eigenvalue-minimisations  :    48
 total energy-change (2. order) : 0.3197219E-02  (-0.5890299E-03)
 number of electron      32.0000047 magnetization 
 augmentation part        5.1459241 magnetization 

 Broyden mixing:
  rms(total) = 0.34965E-01    rms(broyden)= 0.34947E-01
  rms(prec ) = 0.41377E-01
  weight for this iteration     100.00

 eigenvalues of (default mixing * dielectric matrix)
  average eigenvalue GAMMA=   1.6036
  1.0053  2.2019

 Free energy of the ion-electron system (eV)
  ---------------------------------------------------
  alpha Z        PSCENC =         7.54128431
  Ewald energy   TEWEN  =       605.38974660
  -1/2 Hartree   DENC   =     -3013.98480860
  -exchange  EXHF       =         0.00000000
  -V(xc)+E(xc)   XCENC  =       165.01577669
  PAW double counting   =      1999.48128951    -2021.01944160
  entropy T*S    EENTRO =         0.00000000
  eigenvalues    EBANDS =      -552.71468137
  atomic energy  EATOM  =      2784.31217065
  ---------------------------------------------------
  free energy    TOTEN  =       -25.97866380 eV

  energy without entropy =      -25.97866380  energy(sigma->0) =      -25.97866380


--------------------------------------------------------------------------------------------------------




----------------------------------------- Iteration    3(   4)  ---------------------------------------


    POTLOK:  cpu time    0.93: real time    0.93
    SETDIJ:  cpu time    0.01: real time    0.01
     EDDAV:  cpu time    1.04: real time    1.04
       DOS:  cpu time    0.00: real time    0.00
    CHARGE:  cpu time    0.17: real time    0.17
    MIXING:  cpu time    0.03: real time    0.03
    --------------------------------------------
      LOOP:  cpu time    2.19: real time    2.20

 eigenvalue-minimisations  :    48
 total energy-change (2. order) :-0.1915994E-02  (-0.1439063E-02)
 number of electron      32.0000046 magnetization 
 augmentation part        5.1510185 magnetization 

 Broyden mixing:
  rms(total) = 0.10632E-01    rms(broyden)= 0.10602E-01
  rms(prec ) = 0.16166E-01
  weight for this iteration     100.00

 eigenvalues of (default mixing * dielectric matrix)
  average eigenvalue GAMMA=   1.1893
  2.1975  0.9702  0.4001

 Free energy of the ion-electron system (eV)
  ---------------------------------------------------
  alpha Z        PSCENC =         7.54128431
  Ewald energy   TEWEN  =       605.38974660
  -1/2 Hartree   DENC   =     -3014.87028615
  -exchange  EXHF       =         0.00000000
  -V(xc)+E(xc)   XCENC  =       165.02896594
  PAW double counting   =      2003.87398524    -2025.45806250
  entropy T*S    EENTRO =         0.00000000
  eigenvalues    EBANDS =      -551.79838388
  atomic energy  EATOM  =      2784.31217065
  ---------------------------------------------------
  free energy    TOTEN  =       -25.98057979 eV

  energy without entropy =      -25.98057979  energy(sigma->0) =      -25.98057979


--------------------------------------------------------------------------------------------------------




----------------------------------------- Iteration    3(   5)  ---------------------------------------


    POTLOK:  cpu time    0.93: real time    0.93
    SETDIJ:  cpu time    0.01: real time    0.01
     EDDAV:  cpu time    0.97: real time    0.97
       DOS:  cpu time    0.00: real time    0.00
    CHARGE:  cpu time    0.17: real time    0.17
    MIXING:  cpu time    0.03: real time    0.03
    --------------------------------------------
      LOOP:  cpu time    2.12: real time    2.18

 eigenvalue-minimisations  :    44
 total energy-change (2. order) : 0.1156711E-03  (-0.9547750E-04)
 number of electron      32.0000046 magnetization 
 augmentation part        5.1498673 magnetization 

 Broyden mixing:
  rms(total) = 0.79385E-02    rms(broyden)= 0.79364E-02
  rms(prec ) = 0.11901E-01
  weight for this iteration     100.00

 eigenvalues of (default mixing * dielectric matrix)
  average eigenvalue GAMMA=   1.2843
  2.1933  1.0678  1.0678  0.8082

 Free energy of the ion-electron system (eV)
  ---------------------------------------------------
  alpha Z        PSCENC =         7.54128431
  Ewald energy   TEWEN  =       605.38974660
  -1/2 Hartree   DENC   =     -3014.89542883
  -exchange  EXHF       =         0.00000000
  -V(xc)+E(xc)   XCENC  =       165.03402918
  PAW double counting   =      2004.14406168    -2025.73434995
  entropy T*S    EENTRO =         0.00000000
  eigenvalues    EBANDS =      -551.77197777
  atomic energy  EATOM  =      2784.31217065
  ---------------------------------------------------
  free energy    TOTEN  =       -25.98046412 eV

  energy without entropy =      -25.98046412  energy(sigma->0) =      -25.98046412


--------------------------------------------------------------------------------------------------------




----------------------------------------- Iteration    3(   6)  ---------------------------------------


    POTLOK:  cpu time    0.93: real time    0.93
    SETDIJ:  cpu time    0.01: real time    0.01
     EDDAV:  cpu time    0.90: real time    0.90
       DOS:  cpu time    0.00: real time    0.00
    CHARGE:  cpu time    0.17: real time    0.17
    MIXING:  cpu time    0.03: real time    0.04
    --------------------------------------------
      LOOP:  cpu time    2.05: real time    2.11

 eigenvalue-minimisations  :    40
 total energy-change (2. order) : 0.8496832E-04  (-0.1545949E-03)
 number of electron      32.0000046 magnetization 
 augmentation part        5.1464930 magnetization 

 Broyden mixing:
  rms(total) = 0.30992E-02    rms(broyden)= 0.30876E-02
  rms(prec ) = 0.38562E-02
  weight for this iteration     100.00

 eigenvalues of (default mixing * dielectric matrix)
  average eigenvalue GAMMA=   1.5580
  2.6238  2.6238  0.9342  0.8041  0.8041

 Free energy of the ion-electron system (eV)
  ---------------------------------------------------
  alpha Z        PSCENC =         7.54128431
  Ewald energy   TEWEN  =       605.38974660
  -1/2 Hartree   DENC   =     -3015.03681767
  -exchange  EXHF       =         0.00000000
  -V(xc)+E(xc)   XCENC  =       165.04855946
  PAW double counting   =      2005.01054297    -2026.60940057
  entropy T*S    EENTRO =         0.00000000
  eigenvalues    EBANDS =      -551.63646490
  atomic energy  EATOM  =      2784.31217065
  ---------------------------------------------------
  free energy    TOTEN  =       -25.98037915 eV

  energy without entropy =      -25.98037915  energy(sigma->0) =      -25.98037915


--------------------------------------------------------------------------------------------------------




----------------------------------------- Iteration    3(   7)  ---------------------------------------


    POTLOK:  cpu time    0.92: real time    0.92
    SETDIJ:  cpu time    0.01: real time    0.01
     EDDAV:  cpu time    0.90: real time    0.90
       DOS:  cpu time    0.00: real time    0.00
    CHARGE:  cpu time    0.17: real time    0.17
    MIXING:  cpu time    0.04: real time    0.04
    --------------------------------------------
      LOOP:  cpu time    2.04: real time    2.09

 eigenvalue-minimisations  :    40
 total energy-change (2. order) :-0.1071673E-03  (-0.3859366E-04)
 number of electron      32.0000046 magnetization 
 augmentation part        5.1459776 magnetization 

 Broyden mixing:
  rms(total) = 0.49157E-02    rms(broyden)= 0.49129E-02
  rms(prec ) = 0.74372E-02
  weight for this iteration     100.00

 eigenvalues of (default mixing * dielectric matrix)
  average eigenvalue GAMMA=   1.3649
  2.6078  2.0253  0.9404  0.9404  0.9555  0.7198

 Free energy of the ion-electron system (eV)
  ---------------------------------------------------
  alpha Z        PSCENC =         7.54128431
  Ewald energy   TEWEN  =       605.38974660
  -1/2 Hartree   DENC   =     -3014.86277791
  -exchange  EXHF       =         0.00000000
  -V(xc)+E(xc)   XCENC  =       165.04312814
  PAW double counting   =      2005.10343387    -2026.70147404
  entropy T*S    EENTRO =         0.00000000
  eigenvalues    EBANDS =      -551.80599794
  atomic energy  EATOM  =      2784.31217065
  ---------------------------------------------------
  free energy    TOTEN  =       -25.98048632 eV

  energy without entropy =      -25.98048632  energy(sigma->0) =      -25.98048632


--------------------------------------------------------------------------------------------------------




----------------------------------------- Iteration    3(   8)  ---------------------------------------


    POTLOK:  cpu time    0.83: real time    0.83
    SETDIJ:  cpu time    0.01: real time    0.01
     EDDAV:  cpu time    0.73: real time    0.73
       DOS:  cpu time    0.00: real time    0.00
    --------------------------------------------
      LOOP:  cpu time    1.57: real time    1.96

 eigenvalue-minimisations  :    36
 total energy-change (2. order) : 0.7676121E-04  (-0.2813147E-04)
 number of electron      32.0000046 magnetization 
 augmentation part        5.1459776 magnetization 

 Free energy of the ion-electron system (eV)
  ---------------------------------------------------
  alpha Z        PSCENC =         7.54128431
  Ewald energy   TEWEN  =       605.38974660
  -1/2 Hartree   DENC   =     -3014.87225574
  -exchange  EXHF       =         0.00000000
  -V(xc)+E(xc)   XCENC  =       165.03932977
  PAW double counting   =      2005.05169109    -2026.64968005
  entropy T*S    EENTRO =         0.00000000
  eigenvalues    EBANDS =      -551.79269619
  atomic energy  EATOM  =      2784.31217065
  ---------------------------------------------------
  free energy    TOTEN  =       -25.98040956 eV

  energy without entropy =      -25.98040956  energy(sigma->0) =      -25.98040956


--------------------------------------------------------------------------------------------------------




 average (electrostatic) potential at core
  the test charge radii are     0.6991  0.7167
  (the norm of the test charge is              1.0000)
       1 -66.2965       2 -86.9829       3 -86.9829       4 -86.9829       5 -86.9829
 
 
 
 E-fermi :  -8.8216     XC(G=0):  -1.8466     alpha+bet : -0.7008


 k-point   1 :       0.0000    0.0000    0.0000
  band No.  band energies     occupation 
      1     -33.9835      2.00000
      2     -31.1175      2.00000
      3     -31.1175      2.00000
      4     -31.1175      2.00000
      5     -17.6133      2.00000
      6     -15.1686      2.00000
      7     -15.1686      2.00000
      8     -15.1686      2.00000
      9     -11.5035      2.00000
     10     -11.5035      2.00000
     11     -11.0154      2.00000
     12     -11.0154      2.00000
     13     -11.0154      2.00000
     14      -9.7960      2.00000
     15      -9.7960      2.00000
     16      -9.7960      2.00000
     17      -0.3413      0.00000
     18       1.9575      0.00000
     19       1.9575      0.00000
     20       1.9575      0.00000


--------------------------------------------------------------------------------------------------------


 soft charge-density along one line, spin component           1
         0         1         2         3         4         5         6         7         8         9
 total charge-density along one line
 
 pseudopotential strength for first ion, spin component:           1
 10.675   0.034   0.000   0.000   0.000   0.000   0.000   0.000
  0.034  -0.001   0.000   0.000   0.000   0.000   0.000   0.000
  0.000   0.000  -4.796   0.000   0.000  -0.004   0.000   0.000
  0.000   0.000   0.000  -4.796   0.000   0.000  -0.004   0.000
  0.000   0.000   0.000   0.000  -4.796   0.000   0.000  -0.004
  0.000   0.000  -0.004   0.000   0.000  -0.783   0.000   0.000
  0.000   0.000   0.000  -0.004   0.000   0.000  -0.783   0.000
  0.000   0.000   0.000   0.000  -0.004   0.000   0.000  -0.783
 total augmentation occupancy for first ion, spin component:           1
  1.353  -0.828   0.000   0.000   0.000   0.000   0.000   0.000
 -0.828   1.480   0.000   0.000   0.000   0.000   0.000   0.000
  0.000   0.000   0.944   0.000   0.000   0.179   0.000   0.000
  0.000   0.000   0.000   0.944   0.000   0.000   0.179   0.000
  0.000   0.000   0.000   0.000   0.944   0.000   0.000   0.179
  0.000   0.000   0.179   0.000   0.000   0.052   0.000   0.000
  0.000   0.000   0.000   0.179   0.000   0.000   0.052   0.000
  0.000   0.000   0.000   0.000   0.179   0.000   0.000   0.052


------------------------ aborting loop because EDIFF is reached ----------------------------------------


    CHARGE:  cpu time    0.13: real time    0.13
    FORLOC:  cpu time    0.08: real time    0.08
    FORNL :  cpu time    0.18: real time    0.18
    STRESS:  cpu time    0.40: real time    0.41
    FORHAR:  cpu time    0.25: real time    0.25
    MIXING:  cpu time    0.03: real time    0.03

  FORCE on cell =-STRESS in cart. coord.  units (eV):
  Direction    XX          YY          ZZ          XY          YZ          ZX
  --------------------------------------------------------------------------------------
  Alpha Z     7.54128     7.54128     7.54128
  Ewald     201.79628   201.79628   201.79628     0.00000     0.00000     0.00000
  Hartree  1004.99224  1004.99224  1004.99224     0.00000     0.00000     0.00000
  E(xc)    -174.40390  -174.40390  -174.40390     0.00000     0.00000     0.00000
  Local   -1662.31494 -1662.31494 -1662.31494     0.00000     0.00000     0.00000
  n-local  -163.30158  -163.30158  -163.30158     0.00000     0.00000     0.00000
  augment    71.04461    71.04461    71.04461     0.00001     0.00001     0.00000
  Kinetic   710.03545   710.03545   710.03545     0.00000     0.00000     0.00000
  Fock        0.00000     0.00000     0.00000     0.00000     0.00000     0.00000
  -------------------------------------------------------------------------------------
  Total      -4.61055    -4.61055    -4.61055     0.00000     0.00000     0.00000
  in kB     -14.42757   -14.42757   -14.42757     0.00000     0.00000     0.00000
  external pressure =      -14.43 kB  Pullay stress =        0.00 kB


 VOLUME and BASIS-vectors are now :
 -----------------------------------------------------------------------------
  energy-cutoff  :      400.00
  volume of cell :      512.00
      direct lattice vectors                 reciprocal lattice vectors
     8.000000000  0.000000000  0.000000000     0.125000000  0.000000000  0.000000000
     0.000000000  8.000000000  0.000000000     0.000000000  0.125000000  0.000000000
     0.000000000  0.000000000  8.000000000     0.000000000  0.000000000  0.125000000

  length of vectors
     8.000000000  8.000000000  8.000000000     0.125000000  0.125000000  0.125000000


 FORCES acting on ions
    electron-ion (+dipol)            ewald-force                    non-local-force                 convergence-correction
 -----------------------------------------------------------------------------------------------
   0.626E-14 0.633E-14 -.599E-14   -.359E-13 -.636E-13 -.352E-13   0.000E+00 -.162E-26 0.000E+00   0.433E-13 0.327E-13 -.461E-12
   -.283E+03 -.283E+03 -.283E+03   0.317E+03 0.317E+03 0.317E+03   -.335E+02 -.335E+02 -.335E+02   0.422E-01 0.422E-01 0.422E-01
   0.283E+03 0.283E+03 -.283E+03   -.317E+03 -.317E+03 0.317E+03   0.335E+02 0.335E+02 -.335E+02   -.422E-01 -.422E-01 0.422E-01
   0.283E+03 -.283E+03 0.283E+03   -.317E+03 0.317E+03 -.317E+03   0.335E+02 -.335E+02 0.335E+02   -.422E-01 0.422E-01 -.422E-01
   -.283E+03 0.283E+03 0.283E+03   0.317E+03 -.317E+03 -.317E+03   -.335E+02 0.335E+02 0.335E+02   0.422E-01 -.422E-01 -.422E-01
 -----------------------------------------------------------------------------------------------
   0.444E-05 0.444E-05 0.142E-06   -.568E-13 0.568E-13 -.114E-12   -.711E-14 0.000E+00 0.711E-14   0.381E-12 0.345E-12 -.321E-11
 
 
 POSITION                                       TOTAL-FORCE (eV/Angst)
 -----------------------------------------------------------------------------------
      0.00000      0.00000      0.00000         0.000000      0.000000      0.000000
      0.77628      0.77628      0.77628        -0.001713     -0.001713     -0.001713
      7.22372      7.22372      0.77628         0.001713      0.001713     -0.001713
      7.22372      0.77628      7.22372         0.001713     -0.001713      0.001713
      0.77628      7.22372      7.22372        -0.001713      0.001713      0.001713
 -----------------------------------------------------------------------------------
    total drift:                                0.000004      0.000004      0.000000


--------------------------------------------------------------------------------------------------------



  FREE ENERGIE OF THE ION-ELECTRON SYSTEM (eV)
  ---------------------------------------------------
  free  energy   TOTEN  =       -25.980410 eV

  energy  without entropy=      -25.980410  energy(sigma->0) =      -25.980410
 
 d Force = 0.6446454E-01[ 0.305E-03, 0.129E+00]  d Energy = 0.6611798E-01-0.165E-02
 d Force =-0.5518335E+02[-0.563E+02,-0.540E+02]  d Ewald  =-0.5517281E+02-0.105E-01


--------------------------------------------------------------------------------------------------------


    POTLOK:  cpu time    0.79: real time    0.79


--------------------------------------------------------------------------------------------------------




--------------------------------------------------------------------------------------------------------


  
 reached required accuracy - stopping structural energy minimisation
 writing wavefunctions
     LOOP+:  cpu time   18.30: real time   19.17
    4ORBIT:  cpu time    0.00: real time    0.00

 total amount of memory used by VASP on root node    84578. kBytes
========================================================================

   base      :      30000. kBytes
   nonl-proj :       1937. kBytes
   fftplans  :      17864. kBytes
   grid      :      31769. kBytes
   one-center:         15. kBytes
   wavefun   :       2993. kBytes
 
  
  
 General timing and accounting informations for this job:
 ========================================================
  
                  Total CPU time used (sec):       57.000
                            User time (sec):       56.352
                          System time (sec):        0.648
                         Elapsed time (sec):       64.681
  
                   Maximum memory used (kb):           0.
                   Average memory used (kb):           0.
  
                          Minor page faults:       181360
                          Major page faults:            0
                 Voluntary context switches:         2432
