   5   5   0   0
  0.1024000E+03  0.8000000E-09  0.8000000E-09  0.8000000E-09  0.5000000E-15
  1.000000000000000E-004
  CAR 
 unknown system                          
      3.71341170    -18.74673252  301     -8.19031851      1.00000000
    -18.747  0.0000E+00  0.0000E+00
    -18.672  0.0000E+00  0.0000E+00
    -18.597  0.0000E+00  0.0000E+00
    -18.522  0.0000E+00  0.0000E+00
    -18.447  0.0000E+00  0.0000E+00
    -18.372  0.0000E+00  0.0000E+00
    -18.298  0.0000E+00  0.0000E+00
    -18.223  0.0000E+00  0.0000E+00
    -18.148  0.0000E+00  0.0000E+00
    -18.073  0.0000E+00  0.0000E+00
    -17.998  0.0000E+00  0.0000E+00
    -17.923  0.1483E-15  0.1110E-16
    -17.848  0.8898E-14  0.6772E-15
    -17.773  0.5078E-12  0.3869E-13
    -17.699  0.2204E-10  0.1689E-11
    -17.624  0.7255E-09  0.5601E-10
    -17.549  0.1812E-07  0.1412E-08
    -17.474  0.3433E-06  0.2711E-07
    -17.399  0.4937E-05  0.3967E-06
    -17.324  0.5390E-04  0.4432E-05
    -17.249  0.4470E-03  0.3790E-04
    -17.175  0.2816E-02  0.2487E-03
    -17.100  0.1348E-01  0.1258E-02
    -17.025  0.4903E-01  0.4928E-02
    -16.950  0.1356E+00  0.1508E-01
    -16.875  0.2851E+00  0.3642E-01
    -16.800  0.4558E+00  0.7054E-01
    -16.725  0.5542E+00  0.1120E+00
    -16.650  0.5124E+00  0.1504E+00
    -16.576  0.3604E+00  0.1774E+00
    -16.501  0.1927E+00  0.1918E+00
    -16.426  0.7835E-01  0.1977E+00
    -16.351  0.2422E-01  0.1995E+00
    -16.276  0.5691E-02  0.1999E+00
    -16.201  0.1016E-02  0.2000E+00
    -16.126  0.1378E-03  0.2000E+00
    -16.052  0.1420E-04  0.2000E+00
    -15.977  0.1111E-05  0.2000E+00
    -15.902  0.6599E-07  0.2000E+00
    -15.827  0.2974E-08  0.2000E+00
    -15.752  0.1017E-09  0.2000E+00
    -15.677  0.2638E-11  0.2000E+00
    -15.602  0.5220E-13  0.2000E+00
    -15.527  0.5932E-15  0.2000E+00
    -15.453  0.0000E+00  0.2000E+00
    -15.378  0.0000E+00  0.2000E+00
    -15.303  0.0000E+00  0.2000E+00
    -15.228  0.0000E+00  0.2000E+00
    -15.153  0.0000E+00  0.2000E+00
    -15.078  0.0000E+00  0.2000E+00
    -15.003  0.0000E+00  0.2000E+00
    -14.929  0.0000E+00  0.2000E+00
    -14.854  0.0000E+00  0.2000E+00
    -14.779  0.0000E+00  0.2000E+00
    -14.704  0.0000E+00  0.2000E+00
    -14.629  0.0000E+00  0.2000E+00
    -14.554  0.0000E+00  0.2000E+00
    -14.479  0.0000E+00  0.2000E+00
    -14.404  0.0000E+00  0.2000E+00
    -14.330  0.0000E+00  0.2000E+00
    -14.255  0.0000E+00  0.2000E+00
    -14.180  0.0000E+00  0.2000E+00
    -14.105  0.0000E+00  0.2000E+00
    -14.030  0.0000E+00  0.2000E+00
    -13.955  0.0000E+00  0.2000E+00
    -13.880  0.0000E+00  0.2000E+00
    -13.806  0.0000E+00  0.2000E+00
    -13.731  0.0000E+00  0.2000E+00
    -13.656  0.0000E+00  0.2000E+00
    -13.581  0.0000E+00  0.2000E+00
    -13.506  0.0000E+00  0.2000E+00
    -13.431  0.0000E+00  0.2000E+00
    -13.356  0.0000E+00  0.2000E+00
    -13.281  0.0000E+00  0.2000E+00
    -13.207  0.0000E+00  0.2000E+00
    -13.132  0.0000E+00  0.2000E+00
    -13.057  0.0000E+00  0.2000E+00
    -12.982  0.0000E+00  0.2000E+00
    -12.907  0.0000E+00  0.2000E+00
    -12.832  0.0000E+00  0.2000E+00
    -12.757  0.0000E+00  0.2000E+00
    -12.682  0.0000E+00  0.2000E+00
    -12.608  0.0000E+00  0.2000E+00
    -12.533  0.0000E+00  0.2000E+00
    -12.458  0.0000E+00  0.2000E+00
    -12.383  0.0000E+00  0.2000E+00
    -12.308  0.0000E+00  0.2000E+00
    -12.233  0.0000E+00  0.2000E+00
    -12.158  0.0000E+00  0.2000E+00
    -12.084  0.0000E+00  0.2000E+00
    -12.009  0.0000E+00  0.2000E+00
    -11.934  0.0000E+00  0.2000E+00
    -11.859  0.0000E+00  0.2000E+00
    -11.784  0.0000E+00  0.2000E+00
    -11.709  0.0000E+00  0.2000E+00
    -11.634  0.0000E+00  0.2000E+00
    -11.559  0.0000E+00  0.2000E+00
    -11.485  0.0000E+00  0.2000E+00
    -11.410  0.0000E+00  0.2000E+00
    -11.335  0.0000E+00  0.2000E+00
    -11.260  0.0000E+00  0.2000E+00
    -11.185  0.0000E+00  0.2000E+00
    -11.110  0.0000E+00  0.2000E+00
    -11.035  0.0000E+00  0.2000E+00
    -10.961  0.0000E+00  0.2000E+00
    -10.886  0.0000E+00  0.2000E+00
    -10.811  0.0000E+00  0.2000E+00
    -10.736  0.0000E+00  0.2000E+00
    -10.661  0.0000E+00  0.2000E+00
    -10.586  0.0000E+00  0.2000E+00
    -10.511  0.0000E+00  0.2000E+00
    -10.436  0.0000E+00  0.2000E+00
    -10.362  0.0000E+00  0.2000E+00
    -10.287  0.2224E-14  0.2000E+00
    -10.212  0.1521E-12  0.2000E+00
    -10.137  0.7749E-11  0.2000E+00
    -10.062  0.2992E-09  0.2000E+00
     -9.987  0.8765E-08  0.2000E+00
     -9.912  0.1948E-06  0.2000E+00
     -9.838  0.3284E-05  0.2000E+00
     -9.763  0.4204E-04  0.2000E+00
     -9.688  0.4087E-03  0.2000E+00
     -9.613  0.3017E-02  0.2003E+00
     -9.538  0.1692E-01  0.2015E+00
     -9.463  0.7214E-01  0.2069E+00
     -9.388  0.2337E+00  0.2244E+00
     -9.313  0.5757E+00  0.2675E+00
     -9.239  0.1078E+01  0.3482E+00
     -9.164  0.1536E+01  0.4632E+00
     -9.089  0.1663E+01  0.5877E+00
     -9.014  0.1370E+01  0.6903E+00
     -8.939  0.8581E+00  0.7545E+00
     -8.864  0.4087E+00  0.7851E+00
     -8.789  0.1480E+00  0.7962E+00
     -8.715  0.4075E-01  0.7992E+00
     -8.640  0.8527E-02  0.7999E+00
     -8.565  0.1356E-02  0.8000E+00
     -8.490  0.1637E-03  0.8000E+00
     -8.415  0.1502E-04  0.8000E+00
     -8.340  0.1046E-05  0.8000E+00
     -8.265  0.5528E-07  0.8000E+00
     -8.190  0.2217E-08  0.8000E+00
     -8.116  0.6747E-10  0.8000E+00
     -8.041  0.1556E-11  0.8000E+00
     -7.966  0.2758E-13  0.8000E+00
     -7.891  0.0000E+00  0.8000E+00
     -7.816  0.0000E+00  0.8000E+00
     -7.741  0.0000E+00  0.8000E+00
     -7.666  0.0000E+00  0.8000E+00
     -7.592  0.0000E+00  0.8000E+00
     -7.517  0.0000E+00  0.8000E+00
     -7.442  0.0000E+00  0.8000E+00
     -7.367  0.0000E+00  0.8000E+00
     -7.292  0.0000E+00  0.8000E+00
     -7.217  0.0000E+00  0.8000E+00
     -7.142  0.0000E+00  0.8000E+00
     -7.067  0.0000E+00  0.8000E+00
     -6.993  0.0000E+00  0.8000E+00
     -6.918  0.0000E+00  0.8000E+00
     -6.843  0.0000E+00  0.8000E+00
     -6.768  0.0000E+00  0.8000E+00
     -6.693  0.0000E+00  0.8000E+00
     -6.618  0.0000E+00  0.8000E+00
     -6.543  0.0000E+00  0.8000E+00
     -6.469  0.0000E+00  0.8000E+00
     -6.394  0.0000E+00  0.8000E+00
     -6.319  0.0000E+00  0.8000E+00
     -6.244  0.0000E+00  0.8000E+00
     -6.169  0.0000E+00  0.8000E+00
     -6.094  0.0000E+00  0.8000E+00
     -6.019  0.0000E+00  0.8000E+00
     -5.944  0.0000E+00  0.8000E+00
     -5.870  0.0000E+00  0.8000E+00
     -5.795  0.0000E+00  0.8000E+00
     -5.720  0.0000E+00  0.8000E+00
     -5.645  0.0000E+00  0.8000E+00
     -5.570  0.0000E+00  0.8000E+00
     -5.495  0.0000E+00  0.8000E+00
     -5.420  0.0000E+00  0.8000E+00
     -5.346  0.0000E+00  0.8000E+00
     -5.271  0.0000E+00  0.8000E+00
     -5.196  0.0000E+00  0.8000E+00
     -5.121  0.0000E+00  0.8000E+00
     -5.046  0.0000E+00  0.8000E+00
     -4.971  0.0000E+00  0.8000E+00
     -4.896  0.0000E+00  0.8000E+00
     -4.821  0.0000E+00  0.8000E+00
     -4.747  0.0000E+00  0.8000E+00
     -4.672  0.0000E+00  0.8000E+00
     -4.597  0.0000E+00  0.8000E+00
     -4.522  0.0000E+00  0.8000E+00
     -4.447  0.0000E+00  0.8000E+00
     -4.372  0.0000E+00  0.8000E+00
     -4.297  0.0000E+00  0.8000E+00
     -4.223  0.0000E+00  0.8000E+00
     -4.148  0.0000E+00  0.8000E+00
     -4.073  0.0000E+00  0.8000E+00
     -3.998  0.0000E+00  0.8000E+00
     -3.923  0.0000E+00  0.8000E+00
     -3.848  0.0000E+00  0.8000E+00
     -3.773  0.0000E+00  0.8000E+00
     -3.698  0.0000E+00  0.8000E+00
     -3.624  0.0000E+00  0.8000E+00
     -3.549  0.0000E+00  0.8000E+00
     -3.474  0.0000E+00  0.8000E+00
     -3.399  0.0000E+00  0.8000E+00
     -3.324  0.0000E+00  0.8000E+00
     -3.249  0.0000E+00  0.8000E+00
     -3.174  0.0000E+00  0.8000E+00
     -3.099  0.0000E+00  0.8000E+00
     -3.025  0.0000E+00  0.8000E+00
     -2.950  0.0000E+00  0.8000E+00
     -2.875  0.0000E+00  0.8000E+00
     -2.800  0.0000E+00  0.8000E+00
     -2.725  0.0000E+00  0.8000E+00
     -2.650  0.0000E+00  0.8000E+00
     -2.575  0.0000E+00  0.8000E+00
     -2.501  0.0000E+00  0.8000E+00
     -2.426  0.0000E+00  0.8000E+00
     -2.351  0.0000E+00  0.8000E+00
     -2.276  0.0000E+00  0.8000E+00
     -2.201  0.0000E+00  0.8000E+00
     -2.126  0.0000E+00  0.8000E+00
     -2.051  0.0000E+00  0.8000E+00
     -1.976  0.0000E+00  0.8000E+00
     -1.902  0.0000E+00  0.8000E+00
     -1.827  0.1483E-15  0.8000E+00
     -1.752  0.5635E-14  0.8000E+00
     -1.677  0.3394E-12  0.8000E+00
     -1.602  0.1515E-10  0.8000E+00
     -1.527  0.5132E-09  0.8000E+00
     -1.452  0.1318E-07  0.8000E+00
     -1.378  0.2570E-06  0.8000E+00
     -1.303  0.3802E-05  0.8000E+00
     -1.228  0.4270E-04  0.8000E+00
     -1.153  0.3642E-03  0.8000E+00
     -1.078  0.2360E-02  0.8002E+00
     -1.003  0.1162E-01  0.8011E+00
     -0.928  0.4348E-01  0.8043E+00
     -0.853  0.1237E+00  0.8136E+00
     -0.779  0.2675E+00  0.8336E+00
     -0.704  0.4398E+00  0.8665E+00
     -0.629  0.5501E+00  0.9077E+00
     -0.554  0.5231E+00  0.9469E+00
     -0.479  0.3784E+00  0.9752E+00
     -0.404  0.2081E+00  0.9908E+00
     -0.329  0.8704E-01  0.9973E+00
     -0.255  0.2767E-01  0.9994E+00
     -0.180  0.6688E-02  0.9999E+00
     -0.105  0.1228E-02  0.1000E+01
     -0.030  0.1714E-03  0.1000E+01
      0.045  0.1817E-04  0.1000E+01
      0.120  0.1462E-05  0.1000E+01
      0.195  0.8934E-07  0.1000E+01
      0.270  0.4142E-08  0.1000E+01
      0.344  0.1457E-09  0.1000E+01
      0.419  0.3888E-11  0.1000E+01
      0.494  0.7889E-13  0.1000E+01
      0.569  0.3411E-14  0.1000E+01
      0.644  0.1557E-12  0.1000E+01
      0.719  0.7914E-11  0.1000E+01
      0.794  0.3051E-09  0.1000E+01
      0.868  0.8923E-08  0.1000E+01
      0.943  0.1980E-06  0.1000E+01
      1.018  0.3334E-05  0.1000E+01
      1.093  0.4261E-04  0.1000E+01
      1.168  0.4135E-03  0.1000E+01
      1.243  0.3049E-02  0.1000E+01
      1.318  0.1707E-01  0.1002E+01
      1.393  0.7266E-01  0.1007E+01
      1.467  0.2351E+00  0.1025E+01
      1.542  0.5781E+00  0.1068E+01
      1.617  0.1081E+01  0.1149E+01
      1.692  0.1537E+01  0.1264E+01
      1.767  0.1663E+01  0.1388E+01
      1.842  0.1367E+01  0.1491E+01
      1.917  0.8552E+00  0.1555E+01
      1.991  0.4067E+00  0.1585E+01
      2.066  0.1471E+00  0.1596E+01
      2.141  0.4043E-01  0.1599E+01
      2.216  0.8447E-02  0.1600E+01
      2.291  0.1341E-02  0.1600E+01
      2.366  0.1617E-03  0.1600E+01
      2.441  0.1481E-04  0.1600E+01
      2.516  0.1030E-05  0.1600E+01
      2.590  0.5435E-07  0.1600E+01
      2.665  0.2177E-08  0.1600E+01
      2.740  0.6612E-10  0.1600E+01
      2.815  0.1523E-11  0.1600E+01
      2.890  0.2669E-13  0.1600E+01
      2.965  0.0000E+00  0.1600E+01
      3.040  0.0000E+00  0.1600E+01
      3.114  0.0000E+00  0.1600E+01
      3.189  0.0000E+00  0.1600E+01
      3.264  0.0000E+00  0.1600E+01
      3.339  0.0000E+00  0.1600E+01
      3.414  0.0000E+00  0.1600E+01
      3.489  0.0000E+00  0.1600E+01
      3.564  0.0000E+00  0.1600E+01
      3.639  0.0000E+00  0.1600E+01
      3.713  0.0000E+00  0.1600E+01
