       N       E                     dE             d eps       ncg     rms          rms(c)
DAV:   1     0.444316335327E+02    0.44432E+02   -0.15789E+03    16   0.403E+02
DAV:   2    -0.151302301253E+02   -0.59562E+02   -0.59562E+02    24   0.830E+01
DAV:   3    -0.270525547924E+02   -0.11922E+02   -0.11922E+02    16   0.636E+01
DAV:   4    -0.275627411429E+02   -0.51019E+00   -0.51019E+00    32   0.163E+01
DAV:   5    -0.275629053825E+02   -0.16424E-03   -0.16424E-03    32   0.326E-01    0.849E+00
DAV:   6    -0.246370405921E+02    0.29259E+01   -0.86964E+00    24   0.167E+01    0.381E+00
DAV:   7    -0.241290411943E+02    0.50800E+00   -0.85785E-01    32   0.507E+00    0.191E+00
DAV:   8    -0.239694862768E+02    0.15955E+00   -0.18817E-01    16   0.299E+00    0.265E-01
DAV:   9    -0.239681781971E+02    0.13081E-02   -0.78794E-03    16   0.526E-01    0.150E-01
DAV:  10    -0.239665598266E+02    0.16184E-02   -0.13238E-03    16   0.259E-01    0.694E-02
DAV:  11    -0.239746141294E+02   -0.80543E-02   -0.22127E-03    16   0.292E-01    0.728E-02
DAV:  12    -0.239765876733E+02   -0.19735E-02   -0.69736E-04    16   0.183E-01    0.254E-02
DAV:  13    -0.239778402985E+02   -0.12526E-02   -0.20519E-04    16   0.899E-02    0.651E-03
DAV:  14    -0.239778784592E+02   -0.38161E-04   -0.45562E-06    16   0.142E-02
   1 F= -.23977878E+02 E0= -.23977878E+02  d E =-.239779E+02
       N       E                     dE             d eps       ncg     rms          rms(c)
DAV:   1    -0.239868960136E+02   -0.90557E-02   -0.45533E-01    16   0.588E+00    0.367E-01
DAV:   2    -0.239822906706E+02    0.46053E-02   -0.12503E-02    24   0.711E-01    0.140E-01
DAV:   3    -0.239819131835E+02    0.37749E-03   -0.54520E-03    24   0.415E-01    0.528E-02
DAV:   4    -0.239819145854E+02   -0.14019E-05   -0.63946E-06    16   0.245E-02
   2 F= -.23981915E+02 E0= -.23981915E+02  d E =-.403613E-02
       N       E                     dE             d eps       ncg     rms          rms(c)
DAV:   1    -0.239847119712E+02   -0.27988E-02   -0.61357E-02    16   0.222E+00    0.139E-01
DAV:   2    -0.239840098466E+02    0.70212E-03   -0.20855E-03    16   0.245E-01    0.491E-02
DAV:   3    -0.239839798366E+02    0.30010E-04   -0.87849E-04    24   0.186E-01
   3 F= -.23983980E+02 E0= -.23983980E+02  d E =-.610138E-02
