<?xml version="1.0" encoding="ISO-8859-1"?>
<modeling>
 <generator>
  <i name="program" type="string">vasp </i>
  <i name="version" type="string">5.2.12  </i>
  <i name="subversion" type="string">11Nov11 complex                                                      parallel </i>
  <i name="platform" type="string">LinuxIFC </i>
  <i name="date" type="string">2012 10 30 </i>
  <i name="time" type="string">23:19:17 </i>
 </generator>
 <incar>
  <i type="string" name="PREC">normal</i>
  <i type="int" name="IBRION">     2</i>
  <i type="int" name="NSW">    10</i>
  <i name="ENCUT">    350.00000000</i>
  <i type="int" name="ISMEAR">     0</i>
 </incar>
 <kpoints>
  <generation param="Monkhorst-Pack">
   <v type="int" name="divisions">       1        1        1 </v>
   <v name="usershift">      0.00000000       0.00000000       0.00000000 </v>
   <v name="genvec1">      1.00000000       0.00000000       0.00000000 </v>
   <v name="genvec2">      0.00000000       1.00000000       0.00000000 </v>
   <v name="genvec3">      0.00000000       0.00000000       1.00000000 </v>
   <v name="shift">      0.00000000       0.00000000       0.00000000 </v>
  </generation>
  <varray name="kpointlist" >
   <v>       0.00000000       0.00000000       0.00000000 </v>
  </varray>
  <varray name="weights" >
   <v>       1.00000000 </v>
  </varray>
 </kpoints>
 <parameters>
  <separator name="general" >
   <i type="string" name="SYSTEM">unknown system</i>
   <i type="logical" name="LCOMPAT"> F  </i>
  </separator>
  <separator name="electronic" >
   <i type="string" name="PREC">normal</i>
   <i name="ENMAX">    350.00000000</i>
   <i name="ENAUG">    644.87300000</i>
   <i name="EDIFF">      0.00010000</i>
   <i type="int" name="IALGO">    38</i>
   <i type="int" name="IWAVPR">    11</i>
   <i type="int" name="NBANDS">     8</i>
   <i name="NELECT">      8.00000000</i>
   <i type="int" name="TURBO">     0</i>
   <i type="int" name="IRESTART">     0</i>
   <i type="int" name="NREBOOT">     0</i>
   <i type="int" name="NMIN">     0</i>
   <i name="EREF">      0.00000000</i>
   <separator name="electronic smearing" >
    <i type="int" name="ISMEAR">     0</i>
    <i name="SIGMA">      0.20000000</i>
    <i name="KSPACING">      0.50000000</i>
    <i type="logical" name="KGAMMA"> T  </i>
   </separator>
   <separator name="electronic projectors" >
    <i type="logical" name="LREAL"> F  </i>
    <v name="ROPT">      0.00000000      0.00000000</v>
    <i type="int" name="LMAXPAW">  -100</i>
    <i type="int" name="LMAXMIX">     2</i>
    <i type="logical" name="NLSPLINE"> F  </i>
   </separator>
   <separator name="electronic startup" >
    <i type="int" name="ISTART">     0</i>
    <i type="int" name="ICHARG">     2</i>
    <i type="int" name="INIWAV">     1</i>
   </separator>
   <separator name="electronic spin" >
    <i type="int" name="ISPIN">     1</i>
    <i type="logical" name="LNONCOLLINEAR"> F  </i>
    <v name="MAGMOM">      1.00000000      1.00000000      1.00000000      1.00000000      1.00000000</v>
    <i name="NUPDOWN">     -1.00000000</i>
    <i type="logical" name="LSORBIT"> F  </i>
    <v name="SAXIS">      0.00000000      0.00000000      1.00000000</v>
    <i type="logical" name="LSPIRAL"> F  </i>
    <v name="QSPIRAL">      0.00000000      0.00000000      0.00000000</v>
    <i type="logical" name="LZEROZ"> F  </i>
   </separator>
   <separator name="electronic exchange-correlation" >
    <i type="logical" name="LASPH"> F  </i>
    <i type="logical" name="LMETAGGA"> F  </i>
   </separator>
   <separator name="electronic convergence" >
    <i type="int" name="NELM">    60</i>
    <i type="int" name="NELMDL">    -5</i>
    <i type="int" name="NELMIN">     2</i>
    <i name="ENINI">    350.00000000</i>
    <separator name="electronic convergence detail" >
     <i type="logical" name="LDIAG"> T  </i>
     <i type="logical" name="LSUBROT"> T  </i>
     <i name="WEIMIN">      0.00100000</i>
     <i name="EBREAK">      0.00000313</i>
     <i name="DEPER">      0.30000000</i>
     <i type="int" name="NRMM">     4</i>
     <i name="TIME">      0.40000000</i>
    </separator>
   </separator>
   <separator name="electronic mixer" >
    <i name="AMIX">      0.40000000</i>
    <i name="BMIX">      1.00000000</i>
    <i name="AMIN">      0.10000000</i>
    <i name="AMIX_MAG">      1.60000000</i>
    <i name="BMIX_MAG">      1.00000000</i>
    <separator name="electronic mixer details" >
     <i type="int" name="IMIX">     4</i>
     <i type="int" name="MAXMIX">   -45</i>
     <i name="WC">    100.00000000</i>
     <i type="int" name="INIMIX">     1</i>
     <i type="int" name="MIXPRE">     1</i>
     <i type="int" name="MREMOVE">     5</i>
    </separator>
   </separator>
   <separator name="electronic dipolcorrection" >
    <i type="logical" name="LDIPOL"> F  </i>
    <i type="logical" name="LMONO"> F  </i>
    <i type="int" name="IDIPOL">     0</i>
    <i name="EPSILON">      1.00000000</i>
    <v name="DIPOL">   -100.00000000   -100.00000000   -100.00000000</v>
    <i name="EFIELD">      0.00000000</i>
   </separator>
  </separator>
  <separator name="grids" >
   <i type="int" name="NGX">    40</i>
   <i type="int" name="NGY">    40</i>
   <i type="int" name="NGZ">    40</i>
   <i type="int" name="NGXF">    80</i>
   <i type="int" name="NGYF">    80</i>
   <i type="int" name="NGZF">    80</i>
   <i type="logical" name="ADDGRID"> F  </i>
  </separator>
  <separator name="ionic" >
   <i type="int" name="NSW">    10</i>
   <i type="int" name="IBRION">     2</i>
   <i type="int" name="ISIF">     2</i>
   <i name="PSTRESS">      0.00000000</i>
   <i name="EDIFFG">      0.00100000</i>
   <i type="int" name="NFREE">     1</i>
   <i name="POTIM">      0.50000000</i>
   <i name="SMASS">     -3.00000000</i>
   <i name="SCALEE">      1.00000000</i>
  </separator>
  <separator name="ionic md" >
   <i name="TEBEG">      0.00010000</i>
   <i name="TEEND">      0.00010000</i>
   <i type="int" name="NBLOCK">     1</i>
   <i type="int" name="KBLOCK">    10</i>
   <i type="int" name="NPACO">   256</i>
   <i name="APACO">     16.00000000</i>
  </separator>
  <separator name="symmetry" >
   <i type="int" name="ISYM">     2</i>
   <i name="SYMPREC">      0.00001000</i>
  </separator>
  <separator name="dos" >
   <i type="logical" name="LORBIT"> F  </i>
   <v name="RWIGS">     -1.00000000     -1.00000000</v>
   <i type="int" name="NEDOS">   301</i>
   <i name="EMIN">     10.00000000</i>
   <i name="EMAX">    -10.00000000</i>
   <i name="EFERMI">      0.00000000</i>
  </separator>
  <separator name="writing" >
   <i type="int" name="NWRITE">     2</i>
   <i type="logical" name="LWAVE"> T  </i>
   <i type="logical" name="LCHARG"> T  </i>
   <i type="logical" name="LPARD"> F  </i>
   <i type="logical" name="LVTOT"> F  </i>
   <i type="logical" name="LVHAR"> F  </i>
   <i type="logical" name="LELF"> F  </i>
   <i type="logical" name="LOPTICS"> F  </i>
   <v name="STM">      0.00000000      0.00000000      0.00000000      0.00000000      0.00000000      0.00000000      0.00000000</v>
  </separator>
  <separator name="performance" >
   <i type="int" name="NPAR">     1</i>
   <i type="int" name="NSIM">     4</i>
   <i type="int" name="NBLK">    -1</i>
   <i type="logical" name="LPLANE"> T  </i>
   <i type="logical" name="LSCALAPACK"> F  </i>
   <i type="logical" name="LSCAAWARE"> F  </i>
   <i type="logical" name="LSCALU"> F  </i>
   <i type="logical" name="LASYNC"> F  </i>
   <i type="logical" name="LORBITALREAL"> F  </i>
  </separator>
  <separator name="miscellaneous" >
   <i type="int" name="IDIOT">     3</i>
   <i type="logical" name="LMUSIC"> F  </i>
   <v name="POMASS">      1.00000000     12.01100000</v>
   <v name="DARWINR">      0.00000000      0.00000000</v>
   <v name="DARWINV">      1.00000000      1.00000000</v>
   <i type="logical" name="LCORR"> T  </i>
  </separator>
  <i type="logical" name="GGA_COMPAT"> T  </i>
  <i type="logical" name="LBERRY"> F  </i>
  <i type="int" name="ICORELEVEL">     0</i>
  <i type="logical" name="LDAU"> F  </i>
  <i type="int" name="I_CONSTRAINED_M">     0</i>
  <separator name="electronic exchange-correlation" >
   <i type="string" name="GGA">--</i>
   <i type="int" name="VOSKOWN">     0</i>
   <i type="logical" name="LHFCALC"> F  </i>
   <i type="string" name="PRECFOCK"></i>
   <i type="logical" name="LHFONE"> F  </i>
   <i type="logical" name="LRHFCALC"> F  </i>
   <i type="logical" name="LTHOMAS"> F  </i>
   <i type="logical" name="LMODELHF"> F  </i>
   <i name="ENCUT4O">     -1.00000000</i>
   <i type="int" name="EXXOEP">     0</i>
   <i type="int" name="FOURORBIT">     0</i>
   <i name="AEXX">      0.00000000</i>
   <i name="HFALPHA">      0.00000000</i>
   <i name="ALDAX">      1.00000000</i>
   <i name="AGGAX">      1.00000000</i>
   <i name="ALDAC">      1.00000000</i>
   <i name="AGGAC">      1.00000000</i>
   <i type="int" name="NKREDX">     1</i>
   <i type="int" name="NKREDY">     1</i>
   <i type="int" name="NKREDZ">     1</i>
   <i type="logical" name="SHIFTRED"> F  </i>
   <i type="logical" name="ODDONLY"> F  </i>
   <i type="logical" name="EVENONLY"> F  </i>
   <i type="int" name="LMAXFOCK">     0</i>
   <i type="int" name="NMAXFOCKAE">     0</i>
   <i type="logical" name="LFOCKAEDFT"> F  </i>
   <i name="HFSCREEN">      0.00000000</i>
   <i name="HFSCREENC">      0.00000000</i>
  </separator>
  <separator name="vdW DFT" >
   <i type="logical" name="LUSE_VDW"> F  </i>
   <i name="Zab_VDW">     -0.84910000</i>
   <i name="PARAM1">      0.12340000</i>
   <i name="PARAM2">      1.00000000</i>
   <i name="PARAM3">      0.00000000</i>
  </separator>
  <separator name="model GW" >
   <i type="int" name="MODEL_GW">     0</i>
   <i name="MODEL_EPS0">     61.44000000</i>
   <i name="MODEL_ALPHA">      1.00000000</i>
  </separator>
  <separator name="linear response parameters" >
   <i type="logical" name="LEPSILON"> F  </i>
   <i type="logical" name="LRPA"> F  </i>
   <i type="logical" name="LNABLA"> F  </i>
   <i type="logical" name="LVEL"> F  </i>
   <i type="int" name="KINTER">     0</i>
   <i name="CSHIFT">      0.10000000</i>
   <i name="OMEGAMAX">     -1.00000000</i>
  </separator>
  <separator name="orbital magnetization" >
   <i type="logical" name="NUCIND"> F  </i>
   <v name="MAGPOS">      0.00000000      0.00000000      0.00000000</v>
   <i type="logical" name="LNICSALL"> T  </i>
   <i type="logical" name="ORBITALMAG"> F  </i>
   <i type="logical" name="LMAGBLOCH"> F  </i>
   <i type="logical" name="LCHIMAG"> F  </i>
   <i type="logical" name="LGAUGE"> T  </i>
   <i type="int" name="MAGATOM">     0</i>
   <v name="MAGDIPOL">      0.00000000      0.00000000      0.00000000</v>
   <v name="AVECCONST">      0.00000000      0.00000000      0.00000000</v>
  </separator>
  <separator name="response functions" >
   <i type="logical" name="LADDER"> F  </i>
   <i type="logical" name="LHARTREE"> T  </i>
   <i type="int" name="IBSE">     0</i>
   <i type="logical" name="LTCTE"> F  </i>
   <i type="logical" name="LTETE"> F  </i>
   <i type="logical" name="LFXCEPS"> F  </i>
   <i type="logical" name="L2ORDER"> F  </i>
   <i type="logical" name="LUSEW"> F  </i>
   <i name="ENCUTGW">     -2.00000000</i>
   <i name="ENCUTGWSOFT">     -2.00000000</i>
   <i name="ENCUTLF">     -1.00000000</i>
   <i type="int" name="LMAXMP2">    -1</i>
   <i name="SCISSOR">      0.00000000</i>
   <i type="int" name="NOMEGA">     0</i>
   <i type="int" name="NOMEGAR">     0</i>
   <i type="int" name="NBANDSGW">    -1</i>
   <i type="int" name="NBANDSO">    -1</i>
   <i type="int" name="NBANDSV">    -1</i>
   <i name="OPTEMAX">      0.00000000</i>
   <i type="int" name="NELM">     1</i>
   <i type="int" name="DIM">     3</i>
   <i type="int" name="ANTIRES">     0</i>
   <i name="OMEGAMAX">    -30.00000000</i>
   <i name="OMEGATL">   -200.00000000</i>
   <i type="int" name="OMEGAGRID">     0</i>
   <i name="CSHIFT">     -0.10000000</i>
   <i type="logical" name="SELFENERGY"> F  </i>
   <i type="logical" name="LSPECTRAL"> F  </i>
   <i type="logical" name="ODDONLYGW"> F  </i>
   <i type="logical" name="EVENONLYGW"> F  </i>
   <i type="int" name="NKREDLFX">     1</i>
   <i type="int" name="NKREDLFY">     1</i>
   <i type="int" name="NKREDLFZ">     1</i>
   <i type="int" name="MAXMEM">  1800</i>
   <i type="int" name="TELESCOPE">     0</i>
  </separator>
 </parameters>
 <atominfo>
  <atoms>       5 </atoms>
  <types>       2 </types>
  <array name="atoms" >
   <dimension dim="1">ion</dimension>
   <field type="string">element</field>
   <field type="int">atomtype</field>
   <set>
    <rc><c>H </c><c>   1</c></rc>
    <rc><c>H </c><c>   1</c></rc>
    <rc><c>H </c><c>   1</c></rc>
    <rc><c>H </c><c>   1</c></rc>
    <rc><c>C </c><c>   2</c></rc>
   </set>
  </array>
  <array name="atomtypes" >
   <dimension dim="1">type</dimension>
   <field type="int">atomspertype</field>
   <field type="string">element</field>
   <field>mass</field>
   <field>valence</field>
   <field type="string">pseudopotential</field>
   <set>
    <rc><c>   4</c><c>H </c><c>      1.00000000</c><c>      1.00000000</c><c> PAW_PBE H 15Jun2001                    </c></rc>
    <rc><c>   1</c><c>C </c><c>     12.01100000</c><c>      4.00000000</c><c> PAW_PBE C 08Apr2002                    </c></rc>
   </set>
  </array>
 </atominfo>
 <structure name="initialpos" >
  <crystal>
   <varray name="basis" >
    <v>       8.00000000       0.00000000       0.00000000 </v>
    <v>       0.00000000       8.00000000       0.00000000 </v>
    <v>       0.00000000       0.00000000       8.00000000 </v>
   </varray>
   <i name="volume">    512.00000000 </i>
   <varray name="rec_basis" >
    <v>       0.12500000       0.00000000       0.00000000 </v>
    <v>       0.00000000       0.12500000       0.00000000 </v>
    <v>       0.00000000       0.00000000       0.12500000 </v>
   </varray>
  </crystal>
  <varray name="positions" >
   <v>       0.07863975       0.07863975       0.07863975 </v>
   <v>       0.92136025       0.92136025       0.07863975 </v>
   <v>       0.07863975       0.92136025       0.92136025 </v>
   <v>       0.92136025       0.07863975       0.92136025 </v>
   <v>       0.00000000       0.00000000       0.00000000 </v>
  </varray>
 </structure>
 <calculation>
  <scstep>
   <time name="dav">    0.26    0.26</time>
   <time name="total">    1.06    1.07</time>
   <energy>
    <i name="alphaZ">      0.47054448 </i>
    <i name="ewald">     98.76290623 </i>
    <i name="hartreedc">   -215.08095114 </i>
    <i name="XCdc">     22.64688976 </i>
    <i name="pawpsdc">     40.95674594 </i>
    <i name="pawaedc">    -42.14325651 </i>
    <i name="eentropy">      0.00000000 </i>
    <i name="bandstr">    -58.12440108 </i>
    <i name="atom">    196.94315586 </i>
    <i name="e_fr_energy">     44.43163353 </i>
    <i name="e_wo_entrp">     44.43163353 </i>
    <i name="e_0_energy">     44.43163353 </i>
   </energy>
  </scstep>
  <scstep>
   <time name="dav">    0.34    0.34</time>
   <time name="total">    0.34    0.41</time>
   <energy>
    <i name="e_fr_energy">    -15.13023013 </i>
    <i name="e_wo_entrp">    -15.13023013 </i>
    <i name="e_0_energy">    -15.13023013 </i>
   </energy>
  </scstep>
  <scstep>
   <time name="dav">    0.27    0.28</time>
   <time name="total">    0.27    0.33</time>
   <energy>
    <i name="e_fr_energy">    -27.05255479 </i>
    <i name="e_wo_entrp">    -27.05255479 </i>
    <i name="e_0_energy">    -27.05255479 </i>
   </energy>
  </scstep>
  <scstep>
   <time name="dav">    0.46    0.46</time>
   <time name="total">    0.46    0.47</time>
   <energy>
    <i name="e_fr_energy">    -27.56274114 </i>
    <i name="e_wo_entrp">    -27.56274114 </i>
    <i name="e_0_energy">    -27.56274114 </i>
   </energy>
  </scstep>
  <scstep>
   <time name="dav">    0.46    0.46</time>
   <time name="total">    0.59    0.63</time>
   <energy>
    <i name="e_fr_energy">    -27.56290538 </i>
    <i name="e_wo_entrp">    -27.56290538 </i>
    <i name="e_0_energy">    -27.56290538 </i>
   </energy>
  </scstep>
  <scstep>
   <time name="dav">    0.36    0.36</time>
   <time name="total">    1.32    1.34</time>
   <energy>
    <i name="e_fr_energy">    -24.63704059 </i>
    <i name="e_wo_entrp">    -24.63704059 </i>
    <i name="e_0_energy">    -24.63704059 </i>
   </energy>
  </scstep>
  <scstep>
   <time name="dav">    0.46    0.46</time>
   <time name="total">    1.42    1.43</time>
   <energy>
    <i name="e_fr_energy">    -24.12904119 </i>
    <i name="e_wo_entrp">    -24.12904119 </i>
    <i name="e_0_energy">    -24.12904119 </i>
   </energy>
  </scstep>
  <scstep>
   <time name="dav">    0.27    0.27</time>
   <time name="total">    1.24    1.33</time>
   <energy>
    <i name="e_fr_energy">    -23.96948628 </i>
    <i name="e_wo_entrp">    -23.96948628 </i>
    <i name="e_0_energy">    -23.96948628 </i>
   </energy>
  </scstep>
  <scstep>
   <time name="dav">    0.27    0.27</time>
   <time name="total">    1.23    1.24</time>
   <energy>
    <i name="e_fr_energy">    -23.96817820 </i>
    <i name="e_wo_entrp">    -23.96817820 </i>
    <i name="e_0_energy">    -23.96817820 </i>
   </energy>
  </scstep>
  <scstep>
   <time name="dav">    0.27    0.27</time>
   <time name="total">    1.22    1.26</time>
   <energy>
    <i name="e_fr_energy">    -23.96655983 </i>
    <i name="e_wo_entrp">    -23.96655983 </i>
    <i name="e_0_energy">    -23.96655983 </i>
   </energy>
  </scstep>
  <scstep>
   <time name="dav">    0.27    0.27</time>
   <time name="total">    1.17    1.49</time>
   <energy>
    <i name="e_fr_energy">    -23.97461413 </i>
    <i name="e_wo_entrp">    -23.97461413 </i>
    <i name="e_0_energy">    -23.97461413 </i>
   </energy>
  </scstep>
  <scstep>
   <time name="dav">    0.26    0.26</time>
   <time name="total">    1.18    1.66</time>
   <energy>
    <i name="e_fr_energy">    -23.97658767 </i>
    <i name="e_wo_entrp">    -23.97658767 </i>
    <i name="e_0_energy">    -23.97658767 </i>
   </energy>
  </scstep>
  <scstep>
   <time name="dav">    0.26    0.26</time>
   <time name="total">    1.17    1.19</time>
   <energy>
    <i name="e_fr_energy">    -23.97784030 </i>
    <i name="e_wo_entrp">    -23.97784030 </i>
    <i name="e_0_energy">    -23.97784030 </i>
   </energy>
  </scstep>
  <scstep>
   <time name="dav">    0.26    0.27</time>
   <time name="total">    1.05    1.06</time>
   <energy>
    <i name="alphaZ">      0.47054448 </i>
    <i name="ewald">     98.76290623 </i>
    <i name="hartreedc">   -255.45819979 </i>
    <i name="XCdc">     25.42508865 </i>
    <i name="pawpsdc">     91.16726643 </i>
    <i name="pawaedc">    -92.54723355 </i>
    <i name="eentropy">      0.00000000 </i>
    <i name="bandstr">    -88.74140677 </i>
    <i name="atom">    196.94315586 </i>
    <i name="e_fr_energy">    -23.97787846 </i>
    <i name="e_wo_entrp">    -23.97787846 </i>
    <i name="e_0_energy">    -23.97787846 </i>
   </energy>
  </scstep>
  <parameters_embedded>
   <separator name="dft+d2" >
    <i type="logical" name="LVDW"> F  </i>
   </separator>
  </parameters_embedded>
  <structure>
   <crystal>
    <varray name="basis" >
     <v>       8.00000000       0.00000000       0.00000000 </v>
     <v>       0.00000000       8.00000000       0.00000000 </v>
     <v>       0.00000000       0.00000000       8.00000000 </v>
    </varray>
    <i name="volume">    512.00000000 </i>
    <varray name="rec_basis" >
     <v>       0.12500000       0.00000000       0.00000000 </v>
     <v>       0.00000000       0.12500000       0.00000000 </v>
     <v>       0.00000000       0.00000000       0.12500000 </v>
    </varray>
   </crystal>
   <varray name="positions" >
    <v>       0.07863975       0.07863975       0.07863975 </v>
    <v>       0.92136025       0.92136025       0.07863975 </v>
    <v>       0.07863975       0.92136025       0.92136025 </v>
    <v>       0.92136025       0.07863975       0.92136025 </v>
    <v>       0.00000000       0.00000000       0.00000000 </v>
   </varray>
  </structure>
  <varray name="forces" >
   <v>       0.18274291       0.18274291       0.18274291 </v>
   <v>      -0.18274291      -0.18274291       0.18274291 </v>
   <v>       0.18274291      -0.18274291      -0.18274291 </v>
   <v>      -0.18274291       0.18274291      -0.18274291 </v>
   <v>       0.00000000       0.00000000       0.00000000 </v>
  </varray>
  <varray name="stress" >
   <v>      -1.72622667       0.00000000       0.00000000 </v>
   <v>       0.00000000      -1.72622667       0.00000000 </v>
   <v>       0.00000000       0.00000000      -1.72622667 </v>
  </varray>
  <energy>
   <i name="e_fr_energy">    -23.97787846 </i>
   <i name="e_wo_entrp">    -23.97787846 </i>
   <i name="e_0_energy">      0.00000000 </i>
  </energy>
  <time name="totalsc">   16.41   18.34</time>
 </calculation>
 <calculation>
  <scstep>
   <time name="dav">    0.29    0.29</time>
   <time name="total">    1.38    1.39</time>
   <energy>
    <i name="alphaZ">      0.47054448 </i>
    <i name="ewald">     95.23064550 </i>
    <i name="hartreedc">   -253.41983138 </i>
    <i name="XCdc">     25.31962960 </i>
    <i name="pawpsdc">     91.15703181 </i>
    <i name="pawaedc">    -92.53707628 </i>
    <i name="eentropy">      0.00000000 </i>
    <i name="bandstr">    -87.15099561 </i>
    <i name="atom">    196.94315586 </i>
    <i name="e_fr_energy">    -23.98689601 </i>
    <i name="e_wo_entrp">    -23.98689601 </i>
    <i name="e_0_energy">    -23.98689601 </i>
   </energy>
  </scstep>
  <scstep>
   <time name="dav">    0.34    0.35</time>
   <time name="total">    1.21    1.63</time>
   <energy>
    <i name="e_fr_energy">    -23.98229067 </i>
    <i name="e_wo_entrp">    -23.98229067 </i>
    <i name="e_0_energy">    -23.98229067 </i>
   </energy>
  </scstep>
  <scstep>
   <time name="dav">    0.34    0.35</time>
   <time name="total">    1.17    1.18</time>
   <energy>
    <i name="e_fr_energy">    -23.98191318 </i>
    <i name="e_wo_entrp">    -23.98191318 </i>
    <i name="e_0_energy">    -23.98191318 </i>
   </energy>
  </scstep>
  <scstep>
   <time name="dav">    0.25    0.25</time>
   <time name="total">    0.96    1.02</time>
   <energy>
    <i name="alphaZ">      0.47054448 </i>
    <i name="ewald">     95.23064550 </i>
    <i name="hartreedc">   -252.32750536 </i>
    <i name="XCdc">     25.25753811 </i>
    <i name="pawpsdc">     88.24783862 </i>
    <i name="pawaedc">    -89.61316355 </i>
    <i name="eentropy">      0.00000000 </i>
    <i name="bandstr">    -88.19096825 </i>
    <i name="atom">    196.94315586 </i>
    <i name="e_fr_energy">    -23.98191459 </i>
    <i name="e_wo_entrp">    -23.98191459 </i>
    <i name="e_0_energy">    -23.98191459 </i>
   </energy>
  </scstep>
  <structure>
   <crystal>
    <varray name="basis" >
     <v>       8.00000000       0.00000000       0.00000000 </v>
     <v>       0.00000000       8.00000000       0.00000000 </v>
     <v>       0.00000000       0.00000000       8.00000000 </v>
    </varray>
    <i name="volume">    512.00000000 </i>
    <varray name="rec_basis" >
     <v>       0.12500000       0.00000000       0.00000000 </v>
     <v>       0.00000000       0.12500000       0.00000000 </v>
     <v>       0.00000000       0.00000000       0.12500000 </v>
    </varray>
   </crystal>
   <varray name="positions" >
    <v>       0.07974175       0.07974175       0.07974175 </v>
    <v>       0.92025825       0.92025825       0.07974175 </v>
    <v>       0.07974175       0.92025825       0.92025825 </v>
    <v>       0.92025825       0.07974175       0.92025825 </v>
    <v>       0.00000000       0.00000000       0.00000000 </v>
   </varray>
  </structure>
  <varray name="forces" >
   <v>      -0.11377218      -0.11377218      -0.11377218 </v>
   <v>       0.11377218       0.11377218      -0.11377218 </v>
   <v>      -0.11377218       0.11377218       0.11377218 </v>
   <v>       0.11377218      -0.11377218       0.11377218 </v>
   <v>       0.00000000       0.00000000       0.00000000 </v>
  </varray>
  <varray name="stress" >
   <v>      -3.72112029       0.00000000       0.00000000 </v>
   <v>       0.00000000      -3.72112029       0.00000000 </v>
   <v>       0.00000000       0.00000000      -3.72112029 </v>
  </varray>
  <energy>
   <i name="e_fr_energy">    -23.98191459 </i>
   <i name="e_wo_entrp">    -23.98191459 </i>
   <i name="e_0_energy">      0.00000000 </i>
  </energy>
  <time name="totalsc">    6.31    7.57</time>
 </calculation>
 <calculation>
  <scstep>
   <time name="dav">    0.30    0.30</time>
   <time name="total">    1.33    1.33</time>
   <energy>
    <i name="alphaZ">      0.47054448 </i>
    <i name="ewald">     96.57406990 </i>
    <i name="hartreedc">   -253.18232101 </i>
    <i name="XCdc">     25.30108566 </i>
    <i name="pawpsdc">     88.22295022 </i>
    <i name="pawaedc">    -89.58845083 </i>
    <i name="eentropy">      0.00000000 </i>
    <i name="bandstr">    -88.72574626 </i>
    <i name="atom">    196.94315586 </i>
    <i name="e_fr_energy">    -23.98471197 </i>
    <i name="e_wo_entrp">    -23.98471197 </i>
    <i name="e_0_energy">    -23.98471197 </i>
   </energy>
  </scstep>
  <scstep>
   <time name="dav">    0.30    0.30</time>
   <time name="total">    1.35    1.36</time>
   <energy>
    <i name="e_fr_energy">    -23.98400985 </i>
    <i name="e_wo_entrp">    -23.98400985 </i>
    <i name="e_0_energy">    -23.98400985 </i>
   </energy>
  </scstep>
  <scstep>
   <time name="dav">    0.41    0.41</time>
   <time name="total">    1.32    1.40</time>
   <energy>
    <i name="alphaZ">      0.47054448 </i>
    <i name="ewald">     96.57406990 </i>
    <i name="hartreedc">   -253.57728863 </i>
    <i name="XCdc">     25.32224649 </i>
    <i name="pawpsdc">     89.11431922 </i>
    <i name="pawaedc">    -90.48610049 </i>
    <i name="eentropy">      0.00000000 </i>
    <i name="bandstr">    -88.34492666 </i>
    <i name="atom">    196.94315586 </i>
    <i name="e_fr_energy">    -23.98397984 </i>
    <i name="e_wo_entrp">    -23.98397984 </i>
    <i name="e_0_energy">    -23.98397984 </i>
   </energy>
  </scstep>
  <structure>
   <crystal>
    <varray name="basis" >
     <v>       8.00000000       0.00000000       0.00000000 </v>
     <v>       0.00000000       8.00000000       0.00000000 </v>
     <v>       0.00000000       0.00000000       8.00000000 </v>
    </varray>
    <i name="volume">    512.00000000 </i>
    <varray name="rec_basis" >
     <v>       0.12500000       0.00000000       0.00000000 </v>
     <v>       0.00000000       0.12500000       0.00000000 </v>
     <v>       0.00000000       0.00000000       0.12500000 </v>
    </varray>
   </crystal>
   <varray name="positions" >
    <v>       0.07931892       0.07931892       0.07931892 </v>
    <v>       0.92068108       0.92068108       0.07931892 </v>
    <v>       0.07931892       0.92068108       0.92068108 </v>
    <v>       0.92068108       0.07931892       0.92068108 </v>
    <v>       0.00000000       0.00000000       0.00000000 </v>
   </varray>
  </structure>
  <varray name="forces" >
   <v>       0.00824099       0.00824099       0.00824099 </v>
   <v>      -0.00824099      -0.00824099       0.00824099 </v>
   <v>       0.00824099      -0.00824099      -0.00824099 </v>
   <v>      -0.00824099       0.00824099      -0.00824099 </v>
   <v>       0.00000000       0.00000000       0.00000000 </v>
  </varray>
  <varray name="stress" >
   <v>      -3.15501206       0.00000000       0.00000000 </v>
   <v>       0.00000000      -3.15501206       0.00000000 </v>
   <v>       0.00000000       0.00000000      -3.15501206 </v>
  </varray>
  <energy>
   <i name="e_fr_energy">    -23.98397984 </i>
   <i name="e_wo_entrp">    -23.98397984 </i>
   <i name="e_0_energy">      0.00000000 </i>
  </energy>
  <time name="totalsc">    5.74    6.40</time>
  <eigenvalues>
   <array>
    <dimension dim="1">band</dimension>
    <dimension dim="2">kpoint</dimension>
    <dimension dim="3">spin</dimension>
    <field>eigene</field>
    <field>occ</field>
    <set>
     <set comment="spin 1">
      <set comment="kpoint 1">
       <r>  -16.7467    1.0000 </r>
       <r>   -9.1419    1.0000 </r>
       <r>   -9.1419    1.0000 </r>
       <r>   -9.1419    1.0000 </r>
       <r>   -0.6426    0.0000 </r>
       <r>    1.7134    0.0000 </r>
       <r>    1.7134    0.0000 </r>
       <r>    1.7134    0.0000 </r>
      </set>
     </set>
    </set>
   </array>
  </eigenvalues>
  <separator name="orbital magnetization" >
   <v name="MAGDIPOLOUT">      0.00000000      0.00000000      0.00000000</v>
  </separator>
  <dos>
   <i name="efermi">     -8.19031851 </i>
   <total>
    <array>
     <dimension dim="1">gridpoints</dimension>
     <dimension dim="2">spin</dimension>
     <field>energy</field>
     <field>total</field>
     <field>integrated</field>
     <set>
      <set comment="spin 1">
       <r>   -18.7467     0.0000     0.0000 </r>
       <r>   -18.6719     0.0000     0.0000 </r>
       <r>   -18.5970     0.0000     0.0000 </r>
       <r>   -18.5221     0.0000     0.0000 </r>
       <r>   -18.4473     0.0000     0.0000 </r>
       <r>   -18.3724     0.0000     0.0000 </r>
       <r>   -18.2975     0.0000     0.0000 </r>
       <r>   -18.2227     0.0000     0.0000 </r>
       <r>   -18.1478     0.0000     0.0000 </r>
       <r>   -18.0729     0.0000     0.0000 </r>
       <r>   -17.9981     0.0000     0.0000 </r>
       <r>   -17.9232     0.0000     0.0000 </r>
       <r>   -17.8483     0.0000     0.0000 </r>
       <r>   -17.7735     0.0000     0.0000 </r>
       <r>   -17.6986     0.0000     0.0000 </r>
       <r>   -17.6237     0.0000     0.0000 </r>
       <r>   -17.5489     0.0000     0.0000 </r>
       <r>   -17.4740     0.0000     0.0000 </r>
       <r>   -17.3991     0.0000     0.0000 </r>
       <r>   -17.3243     0.0005     0.0000 </r>
       <r>   -17.2494     0.0045     0.0004 </r>
       <r>   -17.1745     0.0282     0.0025 </r>
       <r>   -17.0997     0.1348     0.0126 </r>
       <r>   -17.0248     0.4903     0.0493 </r>
       <r>   -16.9499     1.3558     0.1508 </r>
       <r>   -16.8751     2.8507     0.3642 </r>
       <r>   -16.8002     4.5579     0.7054 </r>
       <r>   -16.7253     5.5419     1.1203 </r>
       <r>   -16.6505     5.1245     1.5040 </r>
       <r>   -16.5756     3.6036     1.7738 </r>
       <r>   -16.5007     1.9270     1.9181 </r>
       <r>   -16.4259     0.7835     1.9767 </r>
       <r>   -16.3510     0.2422     1.9949 </r>
       <r>   -16.2761     0.0569     1.9991 </r>
       <r>   -16.2012     0.0102     1.9999 </r>
       <r>   -16.1264     0.0014     2.0000 </r>
       <r>   -16.0515     0.0001     2.0000 </r>
       <r>   -15.9766     0.0000     2.0000 </r>
       <r>   -15.9018     0.0000     2.0000 </r>
       <r>   -15.8269     0.0000     2.0000 </r>
       <r>   -15.7520     0.0000     2.0000 </r>
       <r>   -15.6772     0.0000     2.0000 </r>
       <r>   -15.6023     0.0000     2.0000 </r>
       <r>   -15.5274     0.0000     2.0000 </r>
       <r>   -15.4526     0.0000     2.0000 </r>
       <r>   -15.3777     0.0000     2.0000 </r>
       <r>   -15.3028     0.0000     2.0000 </r>
       <r>   -15.2280     0.0000     2.0000 </r>
       <r>   -15.1531     0.0000     2.0000 </r>
       <r>   -15.0782     0.0000     2.0000 </r>
       <r>   -15.0034     0.0000     2.0000 </r>
       <r>   -14.9285     0.0000     2.0000 </r>
       <r>   -14.8536     0.0000     2.0000 </r>
       <r>   -14.7788     0.0000     2.0000 </r>
       <r>   -14.7039     0.0000     2.0000 </r>
       <r>   -14.6290     0.0000     2.0000 </r>
       <r>   -14.5542     0.0000     2.0000 </r>
       <r>   -14.4793     0.0000     2.0000 </r>
       <r>   -14.4044     0.0000     2.0000 </r>
       <r>   -14.3296     0.0000     2.0000 </r>
       <r>   -14.2547     0.0000     2.0000 </r>
       <r>   -14.1798     0.0000     2.0000 </r>
       <r>   -14.1050     0.0000     2.0000 </r>
       <r>   -14.0301     0.0000     2.0000 </r>
       <r>   -13.9552     0.0000     2.0000 </r>
       <r>   -13.8804     0.0000     2.0000 </r>
       <r>   -13.8055     0.0000     2.0000 </r>
       <r>   -13.7306     0.0000     2.0000 </r>
       <r>   -13.6558     0.0000     2.0000 </r>
       <r>   -13.5809     0.0000     2.0000 </r>
       <r>   -13.5060     0.0000     2.0000 </r>
       <r>   -13.4312     0.0000     2.0000 </r>
       <r>   -13.3563     0.0000     2.0000 </r>
       <r>   -13.2814     0.0000     2.0000 </r>
       <r>   -13.2066     0.0000     2.0000 </r>
       <r>   -13.1317     0.0000     2.0000 </r>
       <r>   -13.0568     0.0000     2.0000 </r>
       <r>   -12.9820     0.0000     2.0000 </r>
       <r>   -12.9071     0.0000     2.0000 </r>
       <r>   -12.8322     0.0000     2.0000 </r>
       <r>   -12.7574     0.0000     2.0000 </r>
       <r>   -12.6825     0.0000     2.0000 </r>
       <r>   -12.6076     0.0000     2.0000 </r>
       <r>   -12.5328     0.0000     2.0000 </r>
       <r>   -12.4579     0.0000     2.0000 </r>
       <r>   -12.3830     0.0000     2.0000 </r>
       <r>   -12.3082     0.0000     2.0000 </r>
       <r>   -12.2333     0.0000     2.0000 </r>
       <r>   -12.1584     0.0000     2.0000 </r>
       <r>   -12.0836     0.0000     2.0000 </r>
       <r>   -12.0087     0.0000     2.0000 </r>
       <r>   -11.9338     0.0000     2.0000 </r>
       <r>   -11.8590     0.0000     2.0000 </r>
       <r>   -11.7841     0.0000     2.0000 </r>
       <r>   -11.7092     0.0000     2.0000 </r>
       <r>   -11.6344     0.0000     2.0000 </r>
       <r>   -11.5595     0.0000     2.0000 </r>
       <r>   -11.4846     0.0000     2.0000 </r>
       <r>   -11.4098     0.0000     2.0000 </r>
       <r>   -11.3349     0.0000     2.0000 </r>
       <r>   -11.2600     0.0000     2.0000 </r>
       <r>   -11.1852     0.0000     2.0000 </r>
       <r>   -11.1103     0.0000     2.0000 </r>
       <r>   -11.0354     0.0000     2.0000 </r>
       <r>   -10.9605     0.0000     2.0000 </r>
       <r>   -10.8857     0.0000     2.0000 </r>
       <r>   -10.8108     0.0000     2.0000 </r>
       <r>   -10.7359     0.0000     2.0000 </r>
       <r>   -10.6611     0.0000     2.0000 </r>
       <r>   -10.5862     0.0000     2.0000 </r>
       <r>   -10.5113     0.0000     2.0000 </r>
       <r>   -10.4365     0.0000     2.0000 </r>
       <r>   -10.3616     0.0000     2.0000 </r>
       <r>   -10.2867     0.0000     2.0000 </r>
       <r>   -10.2119     0.0000     2.0000 </r>
       <r>   -10.1370     0.0000     2.0000 </r>
       <r>   -10.0621     0.0000     2.0000 </r>
       <r>    -9.9873     0.0000     2.0000 </r>
       <r>    -9.9124     0.0000     2.0000 </r>
       <r>    -9.8375     0.0000     2.0000 </r>
       <r>    -9.7627     0.0004     2.0000 </r>
       <r>    -9.6878     0.0041     2.0003 </r>
       <r>    -9.6129     0.0302     2.0026 </r>
       <r>    -9.5381     0.1692     2.0153 </r>
       <r>    -9.4632     0.7214     2.0693 </r>
       <r>    -9.3883     2.3372     2.2443 </r>
       <r>    -9.3135     5.7568     2.6752 </r>
       <r>    -9.2386    10.7815     3.4824 </r>
       <r>    -9.1637    15.3550     4.6320 </r>
       <r>    -9.0889    16.6309     5.8771 </r>
       <r>    -9.0140    13.6987     6.9027 </r>
       <r>    -8.9391     8.5809     7.5451 </r>
       <r>    -8.8643     4.0873     7.8511 </r>
       <r>    -8.7894     1.4802     7.9620 </r>
       <r>    -8.7145     0.4075     7.9925 </r>
       <r>    -8.6397     0.0853     7.9989 </r>
       <r>    -8.5648     0.0136     7.9999 </r>
       <r>    -8.4899     0.0016     8.0000 </r>
       <r>    -8.4151     0.0002     8.0000 </r>
       <r>    -8.3402     0.0000     8.0000 </r>
       <r>    -8.2653     0.0000     8.0000 </r>
       <r>    -8.1905     0.0000     8.0000 </r>
       <r>    -8.1156     0.0000     8.0000 </r>
       <r>    -8.0407     0.0000     8.0000 </r>
       <r>    -7.9659     0.0000     8.0000 </r>
       <r>    -7.8910     0.0000     8.0000 </r>
       <r>    -7.8161     0.0000     8.0000 </r>
       <r>    -7.7413     0.0000     8.0000 </r>
       <r>    -7.6664     0.0000     8.0000 </r>
       <r>    -7.5915     0.0000     8.0000 </r>
       <r>    -7.5167     0.0000     8.0000 </r>
       <r>    -7.4418     0.0000     8.0000 </r>
       <r>    -7.3669     0.0000     8.0000 </r>
       <r>    -7.2921     0.0000     8.0000 </r>
       <r>    -7.2172     0.0000     8.0000 </r>
       <r>    -7.1423     0.0000     8.0000 </r>
       <r>    -7.0675     0.0000     8.0000 </r>
       <r>    -6.9926     0.0000     8.0000 </r>
       <r>    -6.9177     0.0000     8.0000 </r>
       <r>    -6.8429     0.0000     8.0000 </r>
       <r>    -6.7680     0.0000     8.0000 </r>
       <r>    -6.6931     0.0000     8.0000 </r>
       <r>    -6.6183     0.0000     8.0000 </r>
       <r>    -6.5434     0.0000     8.0000 </r>
       <r>    -6.4685     0.0000     8.0000 </r>
       <r>    -6.3937     0.0000     8.0000 </r>
       <r>    -6.3188     0.0000     8.0000 </r>
       <r>    -6.2439     0.0000     8.0000 </r>
       <r>    -6.1691     0.0000     8.0000 </r>
       <r>    -6.0942     0.0000     8.0000 </r>
       <r>    -6.0193     0.0000     8.0000 </r>
       <r>    -5.9445     0.0000     8.0000 </r>
       <r>    -5.8696     0.0000     8.0000 </r>
       <r>    -5.7947     0.0000     8.0000 </r>
       <r>    -5.7198     0.0000     8.0000 </r>
       <r>    -5.6450     0.0000     8.0000 </r>
       <r>    -5.5701     0.0000     8.0000 </r>
       <r>    -5.4952     0.0000     8.0000 </r>
       <r>    -5.4204     0.0000     8.0000 </r>
       <r>    -5.3455     0.0000     8.0000 </r>
       <r>    -5.2706     0.0000     8.0000 </r>
       <r>    -5.1958     0.0000     8.0000 </r>
       <r>    -5.1209     0.0000     8.0000 </r>
       <r>    -5.0460     0.0000     8.0000 </r>
       <r>    -4.9712     0.0000     8.0000 </r>
       <r>    -4.8963     0.0000     8.0000 </r>
       <r>    -4.8214     0.0000     8.0000 </r>
       <r>    -4.7466     0.0000     8.0000 </r>
       <r>    -4.6717     0.0000     8.0000 </r>
       <r>    -4.5968     0.0000     8.0000 </r>
       <r>    -4.5220     0.0000     8.0000 </r>
       <r>    -4.4471     0.0000     8.0000 </r>
       <r>    -4.3722     0.0000     8.0000 </r>
       <r>    -4.2974     0.0000     8.0000 </r>
       <r>    -4.2225     0.0000     8.0000 </r>
       <r>    -4.1476     0.0000     8.0000 </r>
       <r>    -4.0728     0.0000     8.0000 </r>
       <r>    -3.9979     0.0000     8.0000 </r>
       <r>    -3.9230     0.0000     8.0000 </r>
       <r>    -3.8482     0.0000     8.0000 </r>
       <r>    -3.7733     0.0000     8.0000 </r>
       <r>    -3.6984     0.0000     8.0000 </r>
       <r>    -3.6236     0.0000     8.0000 </r>
       <r>    -3.5487     0.0000     8.0000 </r>
       <r>    -3.4738     0.0000     8.0000 </r>
       <r>    -3.3990     0.0000     8.0000 </r>
       <r>    -3.3241     0.0000     8.0000 </r>
       <r>    -3.2492     0.0000     8.0000 </r>
       <r>    -3.1744     0.0000     8.0000 </r>
       <r>    -3.0995     0.0000     8.0000 </r>
       <r>    -3.0246     0.0000     8.0000 </r>
       <r>    -2.9498     0.0000     8.0000 </r>
       <r>    -2.8749     0.0000     8.0000 </r>
       <r>    -2.8000     0.0000     8.0000 </r>
       <r>    -2.7252     0.0000     8.0000 </r>
       <r>    -2.6503     0.0000     8.0000 </r>
       <r>    -2.5754     0.0000     8.0000 </r>
       <r>    -2.5006     0.0000     8.0000 </r>
       <r>    -2.4257     0.0000     8.0000 </r>
       <r>    -2.3508     0.0000     8.0000 </r>
       <r>    -2.2760     0.0000     8.0000 </r>
       <r>    -2.2011     0.0000     8.0000 </r>
       <r>    -2.1262     0.0000     8.0000 </r>
       <r>    -2.0514     0.0000     8.0000 </r>
       <r>    -1.9765     0.0000     8.0000 </r>
       <r>    -1.9016     0.0000     8.0000 </r>
       <r>    -1.8268     0.0000     8.0000 </r>
       <r>    -1.7519     0.0000     8.0000 </r>
       <r>    -1.6770     0.0000     8.0000 </r>
       <r>    -1.6022     0.0000     8.0000 </r>
       <r>    -1.5273     0.0000     8.0000 </r>
       <r>    -1.4524     0.0000     8.0000 </r>
       <r>    -1.3776     0.0000     8.0000 </r>
       <r>    -1.3027     0.0000     8.0000 </r>
       <r>    -1.2278     0.0004     8.0000 </r>
       <r>    -1.1530     0.0036     8.0003 </r>
       <r>    -1.0781     0.0236     8.0021 </r>
       <r>    -1.0032     0.1162     8.0108 </r>
       <r>    -0.9284     0.4348     8.0433 </r>
       <r>    -0.8535     1.2368     8.1359 </r>
       <r>    -0.7786     2.6747     8.3362 </r>
       <r>    -0.7037     4.3985     8.6655 </r>
       <r>    -0.6289     5.5006     9.0773 </r>
       <r>    -0.5540     5.2315     9.4689 </r>
       <r>    -0.4791     3.7839     9.7522 </r>
       <r>    -0.4043     2.0812     9.9080 </r>
       <r>    -0.3294     0.8704     9.9732 </r>
       <r>    -0.2545     0.2767     9.9939 </r>
       <r>    -0.1797     0.0669     9.9989 </r>
       <r>    -0.1048     0.0123     9.9999 </r>
       <r>    -0.0299     0.0017    10.0000 </r>
       <r>     0.0449     0.0002    10.0000 </r>
       <r>     0.1198     0.0000    10.0000 </r>
       <r>     0.1947     0.0000    10.0000 </r>
       <r>     0.2695     0.0000    10.0000 </r>
       <r>     0.3444     0.0000    10.0000 </r>
       <r>     0.4193     0.0000    10.0000 </r>
       <r>     0.4941     0.0000    10.0000 </r>
       <r>     0.5690     0.0000    10.0000 </r>
       <r>     0.6439     0.0000    10.0000 </r>
       <r>     0.7187     0.0000    10.0000 </r>
       <r>     0.7936     0.0000    10.0000 </r>
       <r>     0.8685     0.0000    10.0000 </r>
       <r>     0.9433     0.0000    10.0000 </r>
       <r>     1.0182     0.0000    10.0000 </r>
       <r>     1.0931     0.0004    10.0000 </r>
       <r>     1.1679     0.0041    10.0003 </r>
       <r>     1.2428     0.0305    10.0026 </r>
       <r>     1.3177     0.1707    10.0154 </r>
       <r>     1.3925     0.7266    10.0698 </r>
       <r>     1.4674     2.3507    10.2458 </r>
       <r>     1.5423     5.7812    10.6786 </r>
       <r>     1.6171    10.8109    11.4880 </r>
       <r>     1.6920    15.3734    12.6390 </r>
       <r>     1.7669    16.6256    13.8837 </r>
       <r>     1.8417    13.6736    14.9074 </r>
       <r>     1.9166     8.5521    15.5476 </r>
       <r>     1.9915     4.0674    15.8522 </r>
       <r>     2.0663     1.4708    15.9623 </r>
       <r>     2.1412     0.4043    15.9925 </r>
       <r>     2.2161     0.0845    15.9989 </r>
       <r>     2.2909     0.0134    15.9999 </r>
       <r>     2.3658     0.0016    16.0000 </r>
       <r>     2.4407     0.0001    16.0000 </r>
       <r>     2.5155     0.0000    16.0000 </r>
       <r>     2.5904     0.0000    16.0000 </r>
       <r>     2.6653     0.0000    16.0000 </r>
       <r>     2.7401     0.0000    16.0000 </r>
       <r>     2.8150     0.0000    16.0000 </r>
       <r>     2.8899     0.0000    16.0000 </r>
       <r>     2.9647     0.0000    16.0000 </r>
       <r>     3.0396     0.0000    16.0000 </r>
       <r>     3.1145     0.0000    16.0000 </r>
       <r>     3.1893     0.0000    16.0000 </r>
       <r>     3.2642     0.0000    16.0000 </r>
       <r>     3.3391     0.0000    16.0000 </r>
       <r>     3.4139     0.0000    16.0000 </r>
       <r>     3.4888     0.0000    16.0000 </r>
       <r>     3.5637     0.0000    16.0000 </r>
       <r>     3.6385     0.0000    16.0000 </r>
       <r>     3.7134     0.0000    16.0000 </r>
      </set>
     </set>
    </array>
   </total>
  </dos>
 </calculation>
 <structure name="finalpos" >
  <crystal>
   <varray name="basis" >
    <v>       8.00000000       0.00000000       0.00000000 </v>
    <v>       0.00000000       8.00000000       0.00000000 </v>
    <v>       0.00000000       0.00000000       8.00000000 </v>
   </varray>
   <i name="volume">    512.00000000 </i>
   <varray name="rec_basis" >
    <v>       0.12500000       0.00000000       0.00000000 </v>
    <v>       0.00000000       0.12500000       0.00000000 </v>
    <v>       0.00000000       0.00000000       0.12500000 </v>
   </varray>
  </crystal>
  <varray name="positions" >
   <v>       0.07931892       0.07931892       0.07931892 </v>
   <v>       0.92068108       0.92068108       0.07931892 </v>
   <v>       0.07931892       0.92068108       0.92068108 </v>
   <v>       0.92068108       0.07931892       0.92068108 </v>
   <v>       0.00000000       0.00000000       0.00000000 </v>
  </varray>
 </structure>
</modeling>
