 running on    1 nodes
 distr:  one band on    1 nodes,    1 groups
 vasp.5.2.12 11Nov11 complex                                                    
  
 POSCAR found :  2 types and       6 ions
 LDA part: xc-table for Pade appr. of Perdew
 POSCAR, INCAR and KPOINTS ok, starting setup
 WARNING: small aliasing (wrap around) errors must be expected
 FFT: planning ...(           1 )
 WAVECAR not read
 entering main loop
       N       E                     dE             d eps       ncg     rms          rms(c)
DAV:   1     0.633490159741E+02    0.63349E+02   -0.27359E+03    20   0.568E+02
DAV:   2    -0.243423051142E+02   -0.87691E+02   -0.87621E+02    38   0.158E+02
DAV:   3    -0.359925898653E+02   -0.11650E+02   -0.11646E+02    32   0.659E+01
DAV:   4    -0.361470374622E+02   -0.15445E+00   -0.15440E+00    24   0.758E+00
DAV:   5    -0.361503809750E+02   -0.33435E-02   -0.33435E-02    32   0.118E+00    0.941E+00
DAV:   6    -0.328098691131E+02    0.33405E+01   -0.61363E+00    22   0.163E+01    0.441E+00
DAV:   7    -0.320723409910E+02    0.73753E+00   -0.22666E+00    30   0.923E+00    0.187E+00
DAV:   8    -0.319520460929E+02    0.12029E+00   -0.26323E-01    24   0.398E+00    0.442E-01
DAV:   9    -0.319469156930E+02    0.51304E-02   -0.14526E-02    22   0.846E-01    0.287E-01
DAV:  10    -0.319488564252E+02   -0.19407E-02   -0.55361E-02    22   0.138E+00    0.217E-01
DAV:  11    -0.319491275471E+02   -0.27112E-03   -0.34087E-03    22   0.436E-01    0.124E-01
DAV:  12    -0.319536783569E+02   -0.45508E-02   -0.19215E-03    20   0.333E-01    0.495E-02
DAV:  13    -0.319564851074E+02   -0.28068E-02   -0.16559E-03    20   0.250E-01    0.449E-02
DAV:  14    -0.319574619147E+02   -0.97681E-03   -0.33389E-04    22   0.120E-01    0.179E-02
DAV:  15    -0.319576573198E+02   -0.19541E-03   -0.16561E-04    24   0.857E-02    0.129E-02
DAV:  16    -0.319577541550E+02   -0.96835E-04   -0.42130E-05    20   0.404E-02
   1 F= -.31957754E+02 E0= -.31957754E+02  d E =-.319578E+02
 curvature:   0.00 expect dE= 0.000E+00 dE for cont linesearch  0.000E+00
 trial: gam= 0.00000 g(F)=  0.235E-01 g(S)=  0.000E+00 ort = 0.000E+00 (trialstep = 0.100E+01)
 search vector abs. value=  0.235E-01
 bond charge predicted
       N       E                     dE             d eps       ncg     rms          rms(c)
DAV:   1    -0.319248383674E+02    0.32819E-01   -0.21163E+00    20   0.133E+01    0.428E-01
DAV:   2    -0.319242564646E+02    0.58190E-03   -0.31322E-02    20   0.142E+00    0.287E-01
DAV:   3    -0.319227022678E+02    0.15542E-02   -0.87902E-03    20   0.823E-01    0.600E-02
DAV:   4    -0.319226242692E+02    0.77999E-04   -0.14273E-03    24   0.294E-01    0.203E-02
DAV:   5    -0.319226253307E+02   -0.10615E-05   -0.10757E-04    24   0.794E-02
   2 F= -.31922625E+02 E0= -.31922625E+02  d E =0.351288E-01
 trial-energy change:    0.035129  1 .order    0.035498   -0.023451    0.094447
 step:   0.1989(harm=  0.1989)  dis= 0.00322  next Energy=   -31.960087 (dE=-0.233E-02)
 bond charge predicted
       N       E                     dE             d eps       ncg     rms          rms(c)
DAV:   1    -0.319614124307E+02   -0.38788E-01   -0.13617E+00    20   0.107E+01    0.338E-01
DAV:   2    -0.319611175804E+02    0.29485E-03   -0.21157E-02    20   0.114E+00    0.230E-01
DAV:   3    -0.319602007021E+02    0.91688E-03   -0.57731E-03    22   0.658E-01    0.513E-02
DAV:   4    -0.319601282244E+02    0.72478E-04   -0.96566E-04    22   0.254E-01
   3 F= -.31960128E+02 E0= -.31960128E+02  d E =-.237407E-02
 curvature:  -0.10 expect dE=-0.557E-03 dE for cont linesearch -0.777E-06
 trial: gam= 0.22070 g(F)=  0.560E-02 g(S)=  0.000E+00 ort = 0.428E-03 (trialstep = 0.840E+00)
 search vector abs. value=  0.694E-02
 bond charge predicted
       N       E                     dE             d eps       ncg     rms          rms(c)
DAV:   1    -0.319620793984E+02   -0.18787E-02   -0.15498E-01    20   0.364E+00    0.163E-01
DAV:   2    -0.319613128873E+02    0.76651E-03   -0.23533E-03    20   0.445E-01    0.804E-02
DAV:   3    -0.319611773676E+02    0.13552E-03   -0.20365E-03    22   0.278E-01    0.305E-02
DAV:   4    -0.319611525745E+02    0.24793E-04   -0.10418E-04    22   0.697E-02
   4 F= -.31961153E+02 E0= -.31961153E+02  d E =-.102435E-02
 trial-energy change:   -0.001024  1 .order   -0.000999   -0.004785    0.002787
 step:   0.5307(harm=  0.5307)  dis= 0.00411  next Energy=   -31.961640 (dE=-0.151E-02)
 bond charge predicted
       N       E                     dE             d eps       ncg     rms          rms(c)
DAV:   1    -0.319617676538E+02   -0.59029E-03   -0.20312E-02    24   0.134E+00    0.626E-02
DAV:   2    -0.319616609965E+02    0.10666E-03   -0.30866E-04    22   0.156E-01    0.306E-02
DAV:   3    -0.319616547274E+02    0.62691E-05   -0.29431E-04    20   0.106E-01
   5 F= -.31961655E+02 E0= -.31961655E+02  d E =-.152650E-02
 curvature:  -0.32 expect dE=-0.939E-05 dE for cont linesearch -0.429E-05
 trial: gam=-0.01812 g(F)=  0.291E-04 g(S)=  0.000E+00 ort = 0.304E-03 (trialstep = 0.778E+00)
 search vector abs. value=  0.204E-04
 reached required accuracy - stopping structural energy minimisation
 writing wavefunctions
NPROCS =  1
