   6   6   0   0
  0.8533333E+02  0.8000000E-09  0.8000000E-09  0.8000000E-09  0.5000000E-15
  1.000000000000000E-004
  CAR 
 unknown system                          
      3.33398829    -20.39362058  301     -5.44507251      1.00000000
    -20.394  0.0000E+00  0.0000E+00
    -20.315  0.0000E+00  0.0000E+00
    -20.235  0.0000E+00  0.0000E+00
    -20.156  0.0000E+00  0.0000E+00
    -20.077  0.0000E+00  0.0000E+00
    -19.998  0.0000E+00  0.0000E+00
    -19.919  0.0000E+00  0.0000E+00
    -19.840  0.0000E+00  0.0000E+00
    -19.761  0.0000E+00  0.0000E+00
    -19.682  0.0000E+00  0.0000E+00
    -19.603  0.0000E+00  0.0000E+00
    -19.524  0.1684E-14  0.1332E-15
    -19.445  0.1346E-12  0.1078E-13
    -19.365  0.7885E-11  0.6345E-12
    -19.286  0.3393E-09  0.2747E-10
    -19.207  0.1073E-07  0.8759E-09
    -19.128  0.2493E-06  0.2059E-07
    -19.049  0.4261E-05  0.3576E-06
    -18.970  0.5357E-04  0.4594E-05
    -18.891  0.4956E-03  0.4379E-04
    -18.812  0.3376E-02  0.3108E-03
    -18.733  0.1694E-01  0.1650E-02
    -18.654  0.6260E-01  0.6602E-02
    -18.575  0.1705E+00  0.2009E-01
    -18.495  0.3424E+00  0.4717E-01
    -18.416  0.5068E+00  0.8725E-01
    -18.337  0.5531E+00  0.1310E+00
    -18.258  0.4451E+00  0.1662E+00
    -18.179  0.2641E+00  0.1871E+00
    -18.100  0.1155E+00  0.1962E+00
    -18.021  0.3723E-01  0.1992E+00
    -17.942  0.8845E-02  0.1999E+00
    -17.863  0.1548E-02  0.2000E+00
    -17.784  0.1994E-03  0.2000E+00
    -17.704  0.1892E-04  0.2000E+00
    -17.625  0.1320E-05  0.2000E+00
    -17.546  0.6777E-07  0.2000E+00
    -17.467  0.2558E-08  0.2000E+00
    -17.388  0.7095E-10  0.2000E+00
    -17.309  0.1446E-11  0.2000E+00
    -17.230  0.2162E-13  0.2000E+00
    -17.151  0.2807E-15  0.2000E+00
    -17.072  0.0000E+00  0.2000E+00
    -16.993  0.0000E+00  0.2000E+00
    -16.914  0.0000E+00  0.2000E+00
    -16.834  0.0000E+00  0.2000E+00
    -16.755  0.0000E+00  0.2000E+00
    -16.676  0.0000E+00  0.2000E+00
    -16.597  0.0000E+00  0.2000E+00
    -16.518  0.0000E+00  0.2000E+00
    -16.439  0.0000E+00  0.2000E+00
    -16.360  0.0000E+00  0.2000E+00
    -16.281  0.0000E+00  0.2000E+00
    -16.202  0.0000E+00  0.2000E+00
    -16.123  0.0000E+00  0.2000E+00
    -16.044  0.0000E+00  0.2000E+00
    -15.964  0.0000E+00  0.2000E+00
    -15.885  0.0000E+00  0.2000E+00
    -15.806  0.0000E+00  0.2000E+00
    -15.727  0.0000E+00  0.2000E+00
    -15.648  0.0000E+00  0.2000E+00
    -15.569  0.0000E+00  0.2000E+00
    -15.490  0.0000E+00  0.2000E+00
    -15.411  0.0000E+00  0.2000E+00
    -15.332  0.0000E+00  0.2000E+00
    -15.253  0.0000E+00  0.2000E+00
    -15.174  0.0000E+00  0.2000E+00
    -15.094  0.0000E+00  0.2000E+00
    -15.015  0.0000E+00  0.2000E+00
    -14.936  0.3650E-14  0.2000E+00
    -14.857  0.2746E-12  0.2000E+00
    -14.778  0.1527E-10  0.2000E+00
    -14.699  0.6233E-09  0.2000E+00
    -14.620  0.1870E-07  0.2000E+00
    -14.541  0.4125E-06  0.2000E+00
    -14.462  0.6692E-05  0.2000E+00
    -14.383  0.7987E-04  0.2000E+00
    -14.304  0.7015E-03  0.2001E+00
    -14.224  0.4536E-02  0.2004E+00
    -14.145  0.2161E-01  0.2021E+00
    -14.066  0.7583E-01  0.2081E+00
    -13.987  0.1961E+00  0.2236E+00
    -13.908  0.3739E+00  0.2532E+00
    -13.829  0.5255E+00  0.2948E+00
    -13.750  0.5446E+00  0.3379E+00
    -13.671  0.4162E+00  0.3708E+00
    -13.592  0.2345E+00  0.3893E+00
    -13.513  0.9737E-01  0.3970E+00
    -13.434  0.2980E-01  0.3994E+00
    -13.354  0.6722E-02  0.3999E+00
    -13.275  0.1117E-02  0.4000E+00
    -13.196  0.1366E-03  0.4000E+00
    -13.117  0.1230E-04  0.4000E+00
    -13.038  0.8148E-06  0.4000E+00
    -12.959  0.3970E-07  0.4000E+00
    -12.880  0.1422E-08  0.4000E+00
    -12.801  0.3744E-10  0.4000E+00
    -12.722  0.7240E-12  0.4000E+00
    -12.643  0.1039E-13  0.4000E+00
    -12.564  0.0000E+00  0.4000E+00
    -12.484  0.0000E+00  0.4000E+00
    -12.405  0.0000E+00  0.4000E+00
    -12.326  0.0000E+00  0.4000E+00
    -12.247  0.0000E+00  0.4000E+00
    -12.168  0.1965E-14  0.4000E+00
    -12.089  0.1572E-12  0.4000E+00
    -12.010  0.9105E-11  0.4000E+00
    -11.931  0.3873E-09  0.4000E+00
    -11.852  0.1211E-07  0.4000E+00
    -11.773  0.2782E-06  0.4000E+00
    -11.693  0.4702E-05  0.4000E+00
    -11.614  0.5845E-04  0.4000E+00
    -11.535  0.5347E-03  0.4000E+00
    -11.456  0.3602E-02  0.4003E+00
    -11.377  0.1787E-01  0.4017E+00
    -11.298  0.6530E-01  0.4069E+00
    -11.219  0.1759E+00  0.4208E+00
    -11.140  0.3492E+00  0.4484E+00
    -11.061  0.5112E+00  0.4889E+00
    -10.982  0.5517E+00  0.5325E+00
    -10.903  0.4390E+00  0.5672E+00
    -10.823  0.2575E+00  0.5876E+00
    -10.744  0.1114E+00  0.5964E+00
    -10.665  0.3551E-01  0.5992E+00
    -10.586  0.8341E-02  0.5999E+00
    -10.507  0.1444E-02  0.6000E+00
    -10.428  0.1892E-03  0.6000E+00
    -10.349  0.8202E-04  0.6000E+00
    -10.270  0.5860E-03  0.6001E+00
    -10.191  0.3887E-02  0.6004E+00
    -10.112  0.1903E-01  0.6019E+00
    -10.033  0.6862E-01  0.6073E+00
     -9.953  0.1824E+00  0.6217E+00
     -9.874  0.3573E+00  0.6500E+00
     -9.795  0.5161E+00  0.6908E+00
     -9.716  0.5497E+00  0.7343E+00
     -9.637  0.4316E+00  0.7684E+00
     -9.558  0.2499E+00  0.7882E+00
     -9.479  0.1067E+00  0.7966E+00
     -9.400  0.3355E-01  0.7993E+00
     -9.321  0.7777E-02  0.7999E+00
     -9.242  0.1328E-02  0.8000E+00
     -9.163  0.1669E-03  0.8000E+00
     -9.083  0.1545E-04  0.8000E+00
     -9.004  0.1052E-05  0.8000E+00
     -8.925  0.5869E-07  0.8000E+00
     -8.846  0.1493E-06  0.8000E+00
     -8.767  0.2657E-05  0.8000E+00
     -8.688  0.3524E-04  0.8000E+00
     -8.609  0.3439E-03  0.8000E+00
     -8.530  0.2471E-02  0.8002E+00
     -8.451  0.1308E-01  0.8013E+00
     -8.372  0.5097E-01  0.8053E+00
     -8.293  0.1464E+00  0.8169E+00
     -8.213  0.3100E+00  0.8414E+00
     -8.134  0.4838E+00  0.8797E+00
     -8.055  0.5568E+00  0.9237E+00
     -7.976  0.4725E+00  0.9611E+00
     -7.897  0.2956E+00  0.9844E+00
     -7.818  0.1363E+00  0.9952E+00
     -7.739  0.4635E-01  0.9989E+00
     -7.660  0.1161E-01  0.9998E+00
     -7.581  0.2143E-02  0.1000E+01
     -7.502  0.2913E-03  0.1000E+01
     -7.423  0.2914E-04  0.1000E+01
     -7.343  0.2145E-05  0.1000E+01
     -7.264  0.1165E-06  0.1000E+01
     -7.185  0.1438E-07  0.1000E+01
     -7.106  0.2289E-06  0.1000E+01
     -7.027  0.3944E-05  0.1000E+01
     -6.948  0.5003E-04  0.1000E+01
     -6.869  0.4670E-03  0.1000E+01
     -6.790  0.3209E-02  0.1000E+01
     -6.711  0.1624E-01  0.1002E+01
     -6.632  0.6055E-01  0.1006E+01
     -6.553  0.1664E+00  0.1020E+01
     -6.473  0.3370E+00  0.1046E+01
     -6.394  0.5032E+00  0.1086E+01
     -6.315  0.5540E+00  0.1130E+01
     -6.236  0.4498E+00  0.1165E+01
     -6.157  0.2692E+00  0.1187E+01
     -6.078  0.1188E+00  0.1196E+01
     -5.999  0.3863E-01  0.1199E+01
     -5.920  0.9257E-02  0.1200E+01
     -5.841  0.1634E-02  0.1200E+01
     -5.762  0.2124E-03  0.1200E+01
     -5.683  0.2033E-04  0.1200E+01
     -5.603  0.1431E-05  0.1200E+01
     -5.524  0.7412E-07  0.1200E+01
     -5.445  0.2822E-08  0.1200E+01
     -5.366  0.7898E-10  0.1200E+01
     -5.287  0.1624E-11  0.1200E+01
     -5.208  0.2442E-13  0.1200E+01
     -5.129  0.2807E-15  0.1200E+01
     -5.050  0.0000E+00  0.1200E+01
     -4.971  0.0000E+00  0.1200E+01
     -4.892  0.0000E+00  0.1200E+01
     -4.812  0.0000E+00  0.1200E+01
     -4.733  0.0000E+00  0.1200E+01
     -4.654  0.0000E+00  0.1200E+01
     -4.575  0.0000E+00  0.1200E+01
     -4.496  0.0000E+00  0.1200E+01
     -4.417  0.0000E+00  0.1200E+01
     -4.338  0.0000E+00  0.1200E+01
     -4.259  0.0000E+00  0.1200E+01
     -4.180  0.0000E+00  0.1200E+01
     -4.101  0.0000E+00  0.1200E+01
     -4.022  0.0000E+00  0.1200E+01
     -3.942  0.0000E+00  0.1200E+01
     -3.863  0.0000E+00  0.1200E+01
     -3.784  0.0000E+00  0.1200E+01
     -3.705  0.0000E+00  0.1200E+01
     -3.626  0.0000E+00  0.1200E+01
     -3.547  0.0000E+00  0.1200E+01
     -3.468  0.0000E+00  0.1200E+01
     -3.389  0.0000E+00  0.1200E+01
     -3.310  0.0000E+00  0.1200E+01
     -3.231  0.0000E+00  0.1200E+01
     -3.152  0.0000E+00  0.1200E+01
     -3.072  0.0000E+00  0.1200E+01
     -2.993  0.0000E+00  0.1200E+01
     -2.914  0.0000E+00  0.1200E+01
     -2.835  0.0000E+00  0.1200E+01
     -2.756  0.0000E+00  0.1200E+01
     -2.677  0.0000E+00  0.1200E+01
     -2.598  0.0000E+00  0.1200E+01
     -2.519  0.0000E+00  0.1200E+01
     -2.440  0.0000E+00  0.1200E+01
     -2.361  0.0000E+00  0.1200E+01
     -2.282  0.0000E+00  0.1200E+01
     -2.202  0.0000E+00  0.1200E+01
     -2.123  0.0000E+00  0.1200E+01
     -2.044  0.0000E+00  0.1200E+01
     -1.965  0.0000E+00  0.1200E+01
     -1.886  0.0000E+00  0.1200E+01
     -1.807  0.9826E-15  0.1200E+01
     -1.728  0.7875E-13  0.1200E+01
     -1.649  0.4800E-11  0.1200E+01
     -1.570  0.2147E-09  0.1200E+01
     -1.491  0.7060E-08  0.1200E+01
     -1.412  0.1706E-06  0.1200E+01
     -1.332  0.3034E-05  0.1200E+01
     -1.253  0.3972E-04  0.1200E+01
     -1.174  0.3831E-03  0.1200E+01
     -1.095  0.2728E-02  0.1200E+01
     -1.016  0.1438E-01  0.1201E+01
     -0.937  0.5634E-01  0.1206E+01
     -0.858  0.1654E+00  0.1219E+01
     -0.779  0.3682E+00  0.1248E+01
     -0.700  0.6334E+00  0.1298E+01
     -0.621  0.8614E+00  0.1366E+01
     -0.542  0.9453E+00  0.1441E+01
     -0.462  0.8437E+00  0.1508E+01
     -0.383  0.6067E+00  0.1556E+01
     -0.304  0.3441E+00  0.1583E+01
     -0.225  0.1505E+00  0.1595E+01
     -0.146  0.4982E-01  0.1599E+01
     -0.067  0.1235E-01  0.1600E+01
      0.012  0.2274E-02  0.1600E+01
      0.091  0.3099E-03  0.1600E+01
      0.170  0.3117E-04  0.1600E+01
      0.249  0.2310E-05  0.1600E+01
      0.328  0.1260E-06  0.1600E+01
      0.408  0.6616E-08  0.1600E+01
      0.487  0.4413E-07  0.1600E+01
      0.566  0.9145E-06  0.1600E+01
      0.645  0.1405E-04  0.1600E+01
      0.724  0.1597E-03  0.1600E+01
      0.803  0.1346E-02  0.1600E+01
      0.882  0.8419E-02  0.1601E+01
      0.961  0.3919E-01  0.1604E+01
      1.040  0.1360E+00  0.1615E+01
      1.119  0.3522E+00  0.1642E+01
      1.199  0.6826E+00  0.1696E+01
      1.278  0.9905E+00  0.1775E+01
      1.357  0.1077E+01  0.1860E+01
      1.436  0.8782E+00  0.1929E+01
      1.515  0.5364E+00  0.1972E+01
      1.594  0.2452E+00  0.1991E+01
      1.673  0.8381E-01  0.1998E+01
      1.752  0.2137E-01  0.2000E+01
      1.831  0.4059E-02  0.2000E+01
      1.910  0.5730E-03  0.2000E+01
      1.989  0.6003E-04  0.2000E+01
      2.069  0.4657E-05  0.2000E+01
      2.148  0.2672E-06  0.2000E+01
      2.227  0.1132E-07  0.2000E+01
      2.306  0.3538E-09  0.2000E+01
      2.385  0.8145E-11  0.2000E+01
      2.464  0.1381E-12  0.2000E+01
      2.543  0.1684E-14  0.2000E+01
      2.622  0.0000E+00  0.2000E+01
      2.701  0.0000E+00  0.2000E+01
      2.780  0.0000E+00  0.2000E+01
      2.859  0.0000E+00  0.2000E+01
      2.939  0.0000E+00  0.2000E+01
      3.018  0.0000E+00  0.2000E+01
      3.097  0.0000E+00  0.2000E+01
      3.176  0.0000E+00  0.2000E+01
      3.255  0.0000E+00  0.2000E+01
      3.334  0.0000E+00  0.2000E+01
