    6    6   10    1
  0.8533333E+02  0.8000000E-09  0.8000000E-09  0.8000000E-09  0.5000000E-15
  1.000000000000000E-004
  CAR 
 unknown system                          
   12    1   10
 
  0.0000000E+00  0.0000000E+00  0.0000000E+00  0.1000000E+01
   1      -18.393621
   2      -13.819714
   3      -11.040970
   4       -9.778942
   5       -8.097887
   6       -6.369362
   7       -0.667025
   8       -0.502985
   9        1.267268
  10        1.333988
