<?xml version="1.0" encoding="ISO-8859-1"?>
<modeling>
 <generator>
  <i name="program" type="string">vasp </i>
  <i name="version" type="string">5.2.12  </i>
  <i name="subversion" type="string">11Nov11 complex                                                      parallel </i>
  <i name="platform" type="string">LinuxIFC </i>
  <i name="date" type="string">2012 11 03 </i>
  <i name="time" type="string">01:30:19 </i>
 </generator>
 <incar>
  <i type="string" name="PREC">normal</i>
  <i type="int" name="IBRION">     2</i>
  <i type="int" name="NSW">    10</i>
  <i name="ENCUT">    400.00000000</i>
  <i type="int" name="ISMEAR">     0</i>
 </incar>
 <kpoints>
  <generation param="Monkhorst-Pack">
   <v type="int" name="divisions">       1        1        1 </v>
   <v name="usershift">      0.00000000       0.00000000       0.00000000 </v>
   <v name="genvec1">      1.00000000       0.00000000       0.00000000 </v>
   <v name="genvec2">      0.00000000       1.00000000       0.00000000 </v>
   <v name="genvec3">      0.00000000       0.00000000       1.00000000 </v>
   <v name="shift">      0.00000000       0.00000000       0.00000000 </v>
  </generation>
  <varray name="kpointlist" >
   <v>       0.00000000       0.00000000       0.00000000 </v>
  </varray>
  <varray name="weights" >
   <v>       1.00000000 </v>
  </varray>
 </kpoints>
 <parameters>
  <separator name="general" >
   <i type="string" name="SYSTEM">unknown system</i>
   <i type="logical" name="LCOMPAT"> F  </i>
  </separator>
  <separator name="electronic" >
   <i type="string" name="PREC">normal</i>
   <i name="ENMAX">    400.00000000</i>
   <i name="ENAUG">    644.87300000</i>
   <i name="EDIFF">      0.00010000</i>
   <i type="int" name="IALGO">    38</i>
   <i type="int" name="IWAVPR">    11</i>
   <i type="int" name="NBANDS">    10</i>
   <i name="NELECT">     12.00000000</i>
   <i type="int" name="TURBO">     0</i>
   <i type="int" name="IRESTART">     0</i>
   <i type="int" name="NREBOOT">     0</i>
   <i type="int" name="NMIN">     0</i>
   <i name="EREF">      0.00000000</i>
   <separator name="electronic smearing" >
    <i type="int" name="ISMEAR">     0</i>
    <i name="SIGMA">      0.20000000</i>
    <i name="KSPACING">      0.50000000</i>
    <i type="logical" name="KGAMMA"> T  </i>
   </separator>
   <separator name="electronic projectors" >
    <i type="logical" name="LREAL"> F  </i>
    <v name="ROPT">      0.00000000      0.00000000</v>
    <i type="int" name="LMAXPAW">  -100</i>
    <i type="int" name="LMAXMIX">     2</i>
    <i type="logical" name="NLSPLINE"> F  </i>
   </separator>
   <separator name="electronic startup" >
    <i type="int" name="ISTART">     0</i>
    <i type="int" name="ICHARG">     2</i>
    <i type="int" name="INIWAV">     1</i>
   </separator>
   <separator name="electronic spin" >
    <i type="int" name="ISPIN">     1</i>
    <i type="logical" name="LNONCOLLINEAR"> F  </i>
    <v name="MAGMOM">      1.00000000      1.00000000      1.00000000      1.00000000      1.00000000      1.00000000</v>
    <i name="NUPDOWN">     -1.00000000</i>
    <i type="logical" name="LSORBIT"> F  </i>
    <v name="SAXIS">      0.00000000      0.00000000      1.00000000</v>
    <i type="logical" name="LSPIRAL"> F  </i>
    <v name="QSPIRAL">      0.00000000      0.00000000      0.00000000</v>
    <i type="logical" name="LZEROZ"> F  </i>
   </separator>
   <separator name="electronic exchange-correlation" >
    <i type="logical" name="LASPH"> F  </i>
    <i type="logical" name="LMETAGGA"> F  </i>
   </separator>
   <separator name="electronic convergence" >
    <i type="int" name="NELM">    60</i>
    <i type="int" name="NELMDL">    -5</i>
    <i type="int" name="NELMIN">     2</i>
    <i name="ENINI">    400.00000000</i>
    <separator name="electronic convergence detail" >
     <i type="logical" name="LDIAG"> T  </i>
     <i type="logical" name="LSUBROT"> T  </i>
     <i name="WEIMIN">      0.00100000</i>
     <i name="EBREAK">      0.00000250</i>
     <i name="DEPER">      0.30000000</i>
     <i type="int" name="NRMM">     4</i>
     <i name="TIME">      0.40000000</i>
    </separator>
   </separator>
   <separator name="electronic mixer" >
    <i name="AMIX">      0.40000000</i>
    <i name="BMIX">      1.00000000</i>
    <i name="AMIN">      0.10000000</i>
    <i name="AMIX_MAG">      1.60000000</i>
    <i name="BMIX_MAG">      1.00000000</i>
    <separator name="electronic mixer details" >
     <i type="int" name="IMIX">     4</i>
     <i type="int" name="MAXMIX">   -45</i>
     <i name="WC">    100.00000000</i>
     <i type="int" name="INIMIX">     1</i>
     <i type="int" name="MIXPRE">     1</i>
     <i type="int" name="MREMOVE">     5</i>
    </separator>
   </separator>
   <separator name="electronic dipolcorrection" >
    <i type="logical" name="LDIPOL"> F  </i>
    <i type="logical" name="LMONO"> F  </i>
    <i type="int" name="IDIPOL">     0</i>
    <i name="EPSILON">      1.00000000</i>
    <v name="DIPOL">   -100.00000000   -100.00000000   -100.00000000</v>
    <i name="EFIELD">      0.00000000</i>
   </separator>
  </separator>
  <separator name="grids" >
   <i type="int" name="NGX">    40</i>
   <i type="int" name="NGY">    40</i>
   <i type="int" name="NGZ">    40</i>
   <i type="int" name="NGXF">    80</i>
   <i type="int" name="NGYF">    80</i>
   <i type="int" name="NGZF">    80</i>
   <i type="logical" name="ADDGRID"> F  </i>
  </separator>
  <separator name="ionic" >
   <i type="int" name="NSW">    10</i>
   <i type="int" name="IBRION">     2</i>
   <i type="int" name="ISIF">     2</i>
   <i name="PSTRESS">      0.00000000</i>
   <i name="EDIFFG">      0.00100000</i>
   <i type="int" name="NFREE">     1</i>
   <i name="POTIM">      0.50000000</i>
   <i name="SMASS">     -3.00000000</i>
   <i name="SCALEE">      1.00000000</i>
  </separator>
  <separator name="ionic md" >
   <i name="TEBEG">      0.00010000</i>
   <i name="TEEND">      0.00010000</i>
   <i type="int" name="NBLOCK">     1</i>
   <i type="int" name="KBLOCK">    10</i>
   <i type="int" name="NPACO">   256</i>
   <i name="APACO">     16.00000000</i>
  </separator>
  <separator name="symmetry" >
   <i type="int" name="ISYM">     2</i>
   <i name="SYMPREC">      0.00001000</i>
  </separator>
  <separator name="dos" >
   <i type="logical" name="LORBIT"> F  </i>
   <v name="RWIGS">     -1.00000000     -1.00000000</v>
   <i type="int" name="NEDOS">   301</i>
   <i name="EMIN">     10.00000000</i>
   <i name="EMAX">    -10.00000000</i>
   <i name="EFERMI">      0.00000000</i>
  </separator>
  <separator name="writing" >
   <i type="int" name="NWRITE">     2</i>
   <i type="logical" name="LWAVE"> T  </i>
   <i type="logical" name="LCHARG"> T  </i>
   <i type="logical" name="LPARD"> F  </i>
   <i type="logical" name="LVTOT"> F  </i>
   <i type="logical" name="LVHAR"> F  </i>
   <i type="logical" name="LELF"> F  </i>
   <i type="logical" name="LOPTICS"> F  </i>
   <v name="STM">      0.00000000      0.00000000      0.00000000      0.00000000      0.00000000      0.00000000      0.00000000</v>
  </separator>
  <separator name="performance" >
   <i type="int" name="NPAR">     1</i>
   <i type="int" name="NSIM">     4</i>
   <i type="int" name="NBLK">    -1</i>
   <i type="logical" name="LPLANE"> T  </i>
   <i type="logical" name="LSCALAPACK"> F  </i>
   <i type="logical" name="LSCAAWARE"> F  </i>
   <i type="logical" name="LSCALU"> F  </i>
   <i type="logical" name="LASYNC"> F  </i>
   <i type="logical" name="LORBITALREAL"> F  </i>
  </separator>
  <separator name="miscellaneous" >
   <i type="int" name="IDIOT">     3</i>
   <i type="logical" name="LMUSIC"> F  </i>
   <v name="POMASS">      1.00000000     12.01100000</v>
   <v name="DARWINR">      0.00000000      0.00000000</v>
   <v name="DARWINV">      1.00000000      1.00000000</v>
   <i type="logical" name="LCORR"> T  </i>
  </separator>
  <i type="logical" name="GGA_COMPAT"> T  </i>
  <i type="logical" name="LBERRY"> F  </i>
  <i type="int" name="ICORELEVEL">     0</i>
  <i type="logical" name="LDAU"> F  </i>
  <i type="int" name="I_CONSTRAINED_M">     0</i>
  <separator name="electronic exchange-correlation" >
   <i type="string" name="GGA">--</i>
   <i type="int" name="VOSKOWN">     0</i>
   <i type="logical" name="LHFCALC"> F  </i>
   <i type="string" name="PRECFOCK"></i>
   <i type="logical" name="LHFONE"> F  </i>
   <i type="logical" name="LRHFCALC"> F  </i>
   <i type="logical" name="LTHOMAS"> F  </i>
   <i type="logical" name="LMODELHF"> F  </i>
   <i name="ENCUT4O">     -1.00000000</i>
   <i type="int" name="EXXOEP">     0</i>
   <i type="int" name="FOURORBIT">     0</i>
   <i name="AEXX">      0.00000000</i>
   <i name="HFALPHA">      0.00000000</i>
   <i name="ALDAX">      1.00000000</i>
   <i name="AGGAX">      1.00000000</i>
   <i name="ALDAC">      1.00000000</i>
   <i name="AGGAC">      1.00000000</i>
   <i type="int" name="NKREDX">     1</i>
   <i type="int" name="NKREDY">     1</i>
   <i type="int" name="NKREDZ">     1</i>
   <i type="logical" name="SHIFTRED"> F  </i>
   <i type="logical" name="ODDONLY"> F  </i>
   <i type="logical" name="EVENONLY"> F  </i>
   <i type="int" name="LMAXFOCK">     0</i>
   <i type="int" name="NMAXFOCKAE">     0</i>
   <i type="logical" name="LFOCKAEDFT"> F  </i>
   <i name="HFSCREEN">      0.00000000</i>
   <i name="HFSCREENC">      0.00000000</i>
  </separator>
  <separator name="vdW DFT" >
   <i type="logical" name="LUSE_VDW"> F  </i>
   <i name="Zab_VDW">     -0.84910000</i>
   <i name="PARAM1">      0.12340000</i>
   <i name="PARAM2">      1.00000000</i>
   <i name="PARAM3">      0.00000000</i>
  </separator>
  <separator name="model GW" >
   <i type="int" name="MODEL_GW">     0</i>
   <i name="MODEL_EPS0">     51.20000000</i>
   <i name="MODEL_ALPHA">      1.00000000</i>
  </separator>
  <separator name="linear response parameters" >
   <i type="logical" name="LEPSILON"> F  </i>
   <i type="logical" name="LRPA"> F  </i>
   <i type="logical" name="LNABLA"> F  </i>
   <i type="logical" name="LVEL"> F  </i>
   <i type="int" name="KINTER">     0</i>
   <i name="CSHIFT">      0.10000000</i>
   <i name="OMEGAMAX">     -1.00000000</i>
  </separator>
  <separator name="orbital magnetization" >
   <i type="logical" name="NUCIND"> F  </i>
   <v name="MAGPOS">      0.00000000      0.00000000      0.00000000</v>
   <i type="logical" name="LNICSALL"> T  </i>
   <i type="logical" name="ORBITALMAG"> F  </i>
   <i type="logical" name="LMAGBLOCH"> F  </i>
   <i type="logical" name="LCHIMAG"> F  </i>
   <i type="logical" name="LGAUGE"> T  </i>
   <i type="int" name="MAGATOM">     0</i>
   <v name="MAGDIPOL">      0.00000000      0.00000000      0.00000000</v>
   <v name="AVECCONST">      0.00000000      0.00000000      0.00000000</v>
  </separator>
  <separator name="response functions" >
   <i type="logical" name="LADDER"> F  </i>
   <i type="logical" name="LHARTREE"> T  </i>
   <i type="int" name="IBSE">     0</i>
   <i type="logical" name="LTCTE"> F  </i>
   <i type="logical" name="LTETE"> F  </i>
   <i type="logical" name="LFXCEPS"> F  </i>
   <i type="logical" name="L2ORDER"> F  </i>
   <i type="logical" name="LUSEW"> F  </i>
   <i name="ENCUTGW">     -2.00000000</i>
   <i name="ENCUTGWSOFT">     -2.00000000</i>
   <i name="ENCUTLF">     -1.00000000</i>
   <i type="int" name="LMAXMP2">    -1</i>
   <i name="SCISSOR">      0.00000000</i>
   <i type="int" name="NOMEGA">     0</i>
   <i type="int" name="NOMEGAR">     0</i>
   <i type="int" name="NBANDSGW">    -1</i>
   <i type="int" name="NBANDSO">    -1</i>
   <i type="int" name="NBANDSV">    -1</i>
   <i name="OPTEMAX">      0.00000000</i>
   <i type="int" name="NELM">     1</i>
   <i type="int" name="DIM">     3</i>
   <i type="int" name="ANTIRES">     0</i>
   <i name="OMEGAMAX">    -30.00000000</i>
   <i name="OMEGATL">   -200.00000000</i>
   <i type="int" name="OMEGAGRID">     0</i>
   <i name="CSHIFT">     -0.10000000</i>
   <i type="logical" name="SELFENERGY"> F  </i>
   <i type="logical" name="LSPECTRAL"> F  </i>
   <i type="logical" name="ODDONLYGW"> F  </i>
   <i type="logical" name="EVENONLYGW"> F  </i>
   <i type="int" name="NKREDLFX">     1</i>
   <i type="int" name="NKREDLFY">     1</i>
   <i type="int" name="NKREDLFZ">     1</i>
   <i type="int" name="MAXMEM">  1800</i>
   <i type="int" name="TELESCOPE">     0</i>
  </separator>
 </parameters>
 <atominfo>
  <atoms>       6 </atoms>
  <types>       2 </types>
  <array name="atoms" >
   <dimension dim="1">ion</dimension>
   <field type="string">element</field>
   <field type="int">atomtype</field>
   <set>
    <rc><c>H </c><c>   1</c></rc>
    <rc><c>H </c><c>   1</c></rc>
    <rc><c>H </c><c>   1</c></rc>
    <rc><c>H </c><c>   1</c></rc>
    <rc><c>C </c><c>   2</c></rc>
    <rc><c>C </c><c>   2</c></rc>
   </set>
  </array>
  <array name="atomtypes" >
   <dimension dim="1">type</dimension>
   <field type="int">atomspertype</field>
   <field type="string">element</field>
   <field>mass</field>
   <field>valence</field>
   <field type="string">pseudopotential</field>
   <set>
    <rc><c>   4</c><c>H </c><c>      1.00000000</c><c>      1.00000000</c><c> PAW_PBE H 15Jun2001                    </c></rc>
    <rc><c>   2</c><c>C </c><c>     12.01100000</c><c>      4.00000000</c><c> PAW_PBE C 08Apr2002                    </c></rc>
   </set>
  </array>
 </atominfo>
 <structure name="initialpos" >
  <crystal>
   <varray name="basis" >
    <v>       8.00000000       0.00000000       0.00000000 </v>
    <v>       0.00000000       8.00000000       0.00000000 </v>
    <v>       0.00000000       0.00000000       8.00000000 </v>
   </varray>
   <i name="volume">    512.00000000 </i>
   <varray name="rec_basis" >
    <v>       0.12500000       0.00000000       0.00000000 </v>
    <v>       0.00000000       0.12500000       0.00000000 </v>
    <v>       0.00000000       0.00000000       0.12500000 </v>
   </varray>
  </crystal>
  <varray name="positions" >
   <v>       0.00000000       0.11535400       0.15471187 </v>
   <v>       0.00000000       0.88464600       0.15471187 </v>
   <v>       0.00000000       0.11535400       0.84528813 </v>
   <v>       0.00000000       0.88464600       0.84528813 </v>
   <v>       0.00000000       0.00000000       0.08343500 </v>
   <v>       0.00000000       0.00000000       0.91656500 </v>
  </varray>
 </structure>
 <calculation>
  <scstep>
   <time name="dav">    0.37    0.37</time>
   <time name="total">    1.17    1.17</time>
   <energy>
    <i name="alphaZ">      1.18323955 </i>
    <i name="ewald">    172.18683896 </i>
    <i name="hartreedc">   -393.99545989 </i>
    <i name="XCdc">     35.70888611 </i>
    <i name="pawpsdc">     78.78818903 </i>
    <i name="pawaedc">    -81.12517927 </i>
    <i name="eentropy">      0.00000000 </i>
    <i name="bandstr">    -93.56647692 </i>
    <i name="atom">    344.16897840 </i>
    <i name="e_fr_energy">     63.34901597 </i>
    <i name="e_wo_entrp">     63.34901597 </i>
    <i name="e_0_energy">     63.34901597 </i>
   </energy>
  </scstep>
  <scstep>
   <time name="dav">    0.60    0.60</time>
   <time name="total">    0.60    0.60</time>
   <energy>
    <i name="e_fr_energy">    -24.34230511 </i>
    <i name="e_wo_entrp">    -24.34230511 </i>
    <i name="e_0_energy">    -24.34230511 </i>
   </energy>
  </scstep>
  <scstep>
   <time name="dav">    0.51    0.51</time>
   <time name="total">    0.52    0.53</time>
   <energy>
    <i name="e_fr_energy">    -35.99258987 </i>
    <i name="e_wo_entrp">    -35.99258987 </i>
    <i name="e_0_energy">    -35.99258987 </i>
   </energy>
  </scstep>
  <scstep>
   <time name="dav">    0.41    0.41</time>
   <time name="total">    0.41    0.42</time>
   <energy>
    <i name="e_fr_energy">    -36.14703746 </i>
    <i name="e_wo_entrp">    -36.14703746 </i>
    <i name="e_0_energy">    -36.14703746 </i>
   </energy>
  </scstep>
  <scstep>
   <time name="dav">    0.51    0.51</time>
   <time name="total">    0.64    0.65</time>
   <energy>
    <i name="e_fr_energy">    -36.15038097 </i>
    <i name="e_wo_entrp">    -36.15038097 </i>
    <i name="e_0_energy">    -36.15038097 </i>
   </energy>
  </scstep>
  <scstep>
   <time name="dav">    0.39    0.39</time>
   <time name="total">    1.29    1.31</time>
   <energy>
    <i name="e_fr_energy">    -32.80986911 </i>
    <i name="e_wo_entrp">    -32.80986911 </i>
    <i name="e_0_energy">    -32.80986911 </i>
   </energy>
  </scstep>
  <scstep>
   <time name="dav">    0.49    0.49</time>
   <time name="total">    1.40    1.41</time>
   <energy>
    <i name="e_fr_energy">    -32.07234099 </i>
    <i name="e_wo_entrp">    -32.07234099 </i>
    <i name="e_0_energy">    -32.07234099 </i>
   </energy>
  </scstep>
  <scstep>
   <time name="dav">    0.41    0.41</time>
   <time name="total">    1.34    1.35</time>
   <energy>
    <i name="e_fr_energy">    -31.95204609 </i>
    <i name="e_wo_entrp">    -31.95204609 </i>
    <i name="e_0_energy">    -31.95204609 </i>
   </energy>
  </scstep>
  <scstep>
   <time name="dav">    0.47    0.47</time>
   <time name="total">    1.60    1.62</time>
   <energy>
    <i name="e_fr_energy">    -31.94691569 </i>
    <i name="e_wo_entrp">    -31.94691569 </i>
    <i name="e_0_energy">    -31.94691569 </i>
   </energy>
  </scstep>
  <scstep>
   <time name="dav">    0.47    0.47</time>
   <time name="total">    1.59    1.61</time>
   <energy>
    <i name="e_fr_energy">    -31.94885643 </i>
    <i name="e_wo_entrp">    -31.94885643 </i>
    <i name="e_0_energy">    -31.94885643 </i>
   </energy>
  </scstep>
  <scstep>
   <time name="dav">    0.46    0.46</time>
   <time name="total">    1.58    1.59</time>
   <energy>
    <i name="e_fr_energy">    -31.94912755 </i>
    <i name="e_wo_entrp">    -31.94912755 </i>
    <i name="e_0_energy">    -31.94912755 </i>
   </energy>
  </scstep>
  <scstep>
   <time name="dav">    0.43    0.43</time>
   <time name="total">    1.54    1.56</time>
   <energy>
    <i name="e_fr_energy">    -31.95367836 </i>
    <i name="e_wo_entrp">    -31.95367836 </i>
    <i name="e_0_energy">    -31.95367836 </i>
   </energy>
  </scstep>
  <scstep>
   <time name="dav">    0.43    0.43</time>
   <time name="total">    1.53    1.54</time>
   <energy>
    <i name="e_fr_energy">    -31.95648511 </i>
    <i name="e_wo_entrp">    -31.95648511 </i>
    <i name="e_0_energy">    -31.95648511 </i>
   </energy>
  </scstep>
  <scstep>
   <time name="dav">    0.46    0.46</time>
   <time name="total">    1.55    1.57</time>
   <energy>
    <i name="e_fr_energy">    -31.95746191 </i>
    <i name="e_wo_entrp">    -31.95746191 </i>
    <i name="e_0_energy">    -31.95746191 </i>
   </energy>
  </scstep>
  <scstep>
   <time name="dav">    0.49    0.49</time>
   <time name="total">    1.59    1.60</time>
   <energy>
    <i name="e_fr_energy">    -31.95765732 </i>
    <i name="e_wo_entrp">    -31.95765732 </i>
    <i name="e_0_energy">    -31.95765732 </i>
   </energy>
  </scstep>
  <scstep>
   <time name="dav">    0.43    0.43</time>
   <time name="total">    1.37    1.38</time>
   <energy>
    <i name="alphaZ">      1.18323955 </i>
    <i name="ewald">    172.18683896 </i>
    <i name="hartreedc">   -450.67447380 </i>
    <i name="XCdc">     39.17688498 </i>
    <i name="pawpsdc">    158.75055830 </i>
    <i name="pawaedc">   -161.43787442 </i>
    <i name="eentropy">      0.00000000 </i>
    <i name="bandstr">   -135.31190614 </i>
    <i name="atom">    344.16897840 </i>
    <i name="e_fr_energy">    -31.95775416 </i>
    <i name="e_wo_entrp">    -31.95775415 </i>
    <i name="e_0_energy">    -31.95775415 </i>
   </energy>
  </scstep>
  <parameters_embedded>
   <separator name="dft+d2" >
    <i type="logical" name="LVDW"> F  </i>
   </separator>
  </parameters_embedded>
  <structure>
   <crystal>
    <varray name="basis" >
     <v>       8.00000000       0.00000000       0.00000000 </v>
     <v>       0.00000000       8.00000000       0.00000000 </v>
     <v>       0.00000000       0.00000000       8.00000000 </v>
    </varray>
    <i name="volume">    512.00000000 </i>
    <varray name="rec_basis" >
     <v>       0.12500000       0.00000000       0.00000000 </v>
     <v>       0.00000000       0.12500000       0.00000000 </v>
     <v>       0.00000000       0.00000000       0.12500000 </v>
    </varray>
   </crystal>
   <varray name="positions" >
    <v>       0.00000000       0.11535400       0.15471187 </v>
    <v>       0.00000000       0.88464600       0.15471187 </v>
    <v>       0.00000000       0.11535400       0.84528813 </v>
    <v>       0.00000000       0.88464600       0.84528813 </v>
    <v>       0.00000000       0.00000000       0.08343500 </v>
    <v>       0.00000000       0.00000000       0.91656500 </v>
   </varray>
  </structure>
  <varray name="forces" >
   <v>       0.00000000       0.22324054       0.12445245 </v>
   <v>       0.00000000      -0.22324054       0.12445245 </v>
   <v>       0.00000000       0.22324054      -0.12445245 </v>
   <v>       0.00000000      -0.22324054      -0.12445245 </v>
   <v>       0.00000000       0.00000000      -0.33527153 </v>
   <v>       0.00000000       0.00000000       0.33527153 </v>
  </varray>
  <varray name="stress" >
   <v>      -1.66324338       0.00000000       0.00000000 </v>
   <v>       0.00000000       1.03443952       0.00000000 </v>
   <v>       0.00000000       0.00000000      -0.95707288 </v>
  </varray>
  <energy>
   <i name="e_fr_energy">    -31.95775416 </i>
   <i name="e_wo_entrp">    -31.95775415 </i>
   <i name="e_0_energy">      0.00000000 </i>
  </energy>
  <time name="totalsc">   22.81   23.11</time>
 </calculation>
 <calculation>
  <scstep>
   <time name="dav">    0.43    0.43</time>
   <time name="total">    1.54    1.54</time>
   <energy>
    <i name="alphaZ">      1.18323955 </i>
    <i name="ewald">    172.34580111 </i>
    <i name="hartreedc">   -451.25162026 </i>
    <i name="XCdc">     39.14743373 </i>
    <i name="pawpsdc">    158.75081897 </i>
    <i name="pawaedc">   -161.43807868 </i>
    <i name="eentropy">      0.00000000 </i>
    <i name="bandstr">   -134.83141119 </i>
    <i name="atom">    344.16897840 </i>
    <i name="e_fr_energy">    -31.92483837 </i>
    <i name="e_wo_entrp">    -31.92483837 </i>
    <i name="e_0_energy">    -31.92483837 </i>
   </energy>
  </scstep>
  <scstep>
   <time name="dav">    0.43    0.43</time>
   <time name="total">    1.53    1.54</time>
   <energy>
    <i name="e_fr_energy">    -31.92425646 </i>
    <i name="e_wo_entrp">    -31.92425646 </i>
    <i name="e_0_energy">    -31.92425646 </i>
   </energy>
  </scstep>
  <scstep>
   <time name="dav">    0.43    0.43</time>
   <time name="total">    1.54    1.55</time>
   <energy>
    <i name="e_fr_energy">    -31.92270227 </i>
    <i name="e_wo_entrp">    -31.92270227 </i>
    <i name="e_0_energy">    -31.92270227 </i>
   </energy>
  </scstep>
  <scstep>
   <time name="dav">    0.50    0.50</time>
   <time name="total">    1.61    1.73</time>
   <energy>
    <i name="e_fr_energy">    -31.92262427 </i>
    <i name="e_wo_entrp">    -31.92262427 </i>
    <i name="e_0_energy">    -31.92262427 </i>
   </energy>
  </scstep>
  <scstep>
   <time name="dav">    0.50    0.50</time>
   <time name="total">    1.44    1.45</time>
   <energy>
    <i name="alphaZ">      1.18323955 </i>
    <i name="ewald">    172.34580111 </i>
    <i name="hartreedc">   -451.03498131 </i>
    <i name="XCdc">     39.11470792 </i>
    <i name="pawpsdc">    158.53525456 </i>
    <i name="pawaedc">   -161.22154278 </i>
    <i name="eentropy">      0.00000000 </i>
    <i name="bandstr">   -135.01408279 </i>
    <i name="atom">    344.16897840 </i>
    <i name="e_fr_energy">    -31.92262533 </i>
    <i name="e_wo_entrp">    -31.92262533 </i>
    <i name="e_0_energy">    -31.92262533 </i>
   </energy>
  </scstep>
  <structure>
   <crystal>
    <varray name="basis" >
     <v>       8.00000000       0.00000000       0.00000000 </v>
     <v>       0.00000000       8.00000000       0.00000000 </v>
     <v>       0.00000000       0.00000000       8.00000000 </v>
    </varray>
    <i name="volume">    512.00000000 </i>
    <varray name="rec_basis" >
     <v>       0.12500000       0.00000000       0.00000000 </v>
     <v>       0.00000000       0.12500000       0.00000000 </v>
     <v>       0.00000000       0.00000000       0.12500000 </v>
    </varray>
   </crystal>
   <varray name="positions" >
    <v>       0.00000000       0.11670021       0.15546236 </v>
    <v>       0.00000000       0.88329979       0.15546236 </v>
    <v>       0.00000000       0.11670021       0.84453764 </v>
    <v>       0.00000000       0.88329979       0.84453764 </v>
    <v>       0.00000000       0.00000000       0.08141320 </v>
    <v>       0.00000000       0.00000000       0.91858680 </v>
   </varray>
  </structure>
  <varray name="forces" >
   <v>       0.00000000      -0.31461369      -0.24547994 </v>
   <v>       0.00000000       0.31461369      -0.24547994 </v>
   <v>       0.00000000      -0.31461369       0.24547994 </v>
   <v>       0.00000000       0.31461369       0.24547994 </v>
   <v>       0.00000000       0.00000000       2.31843302 </v>
   <v>       0.00000000       0.00000000      -2.31843302 </v>
  </varray>
  <varray name="stress" >
   <v>      -1.57926333       0.00000000       0.00000000 </v>
   <v>       0.00000000      -5.05133416       0.00000000 </v>
   <v>       0.00000000       0.00000000       4.25596171 </v>
  </varray>
  <energy>
   <i name="e_fr_energy">    -31.92262533 </i>
   <i name="e_wo_entrp">    -31.92262533 </i>
   <i name="e_0_energy">      0.00000000 </i>
  </energy>
  <time name="totalsc">    9.78    9.96</time>
 </calculation>
 <calculation>
  <scstep>
   <time name="dav">    0.43    0.43</time>
   <time name="total">    1.54    1.54</time>
   <energy>
    <i name="alphaZ">      1.18323955 </i>
    <i name="ewald">    172.19149563 </i>
    <i name="hartreedc">   -450.56095493 </i>
    <i name="XCdc">     39.13709457 </i>
    <i name="pawpsdc">    158.54996188 </i>
    <i name="pawaedc">   -161.23647016 </i>
    <i name="eentropy">      0.00000000 </i>
    <i name="bandstr">   -135.39475738 </i>
    <i name="atom">    344.16897840 </i>
    <i name="e_fr_energy">    -31.96141243 </i>
    <i name="e_wo_entrp">    -31.96141243 </i>
    <i name="e_0_energy">    -31.96141243 </i>
   </energy>
  </scstep>
  <scstep>
   <time name="dav">    0.44    0.44</time>
   <time name="total">    1.56    1.56</time>
   <energy>
    <i name="e_fr_energy">    -31.96111758 </i>
    <i name="e_wo_entrp">    -31.96111758 </i>
    <i name="e_0_energy">    -31.96111758 </i>
   </energy>
  </scstep>
  <scstep>
   <time name="dav">    0.46    0.47</time>
   <time name="total">    1.59    1.61</time>
   <energy>
    <i name="e_fr_energy">    -31.96020070 </i>
    <i name="e_wo_entrp">    -31.96020070 </i>
    <i name="e_0_energy">    -31.96020070 </i>
   </energy>
  </scstep>
  <scstep>
   <time name="dav">    0.43    0.43</time>
   <time name="total">    1.41    1.42</time>
   <energy>
    <i name="alphaZ">      1.18323955 </i>
    <i name="ewald">    172.19149563 </i>
    <i name="hartreedc">   -450.72425016 </i>
    <i name="XCdc">     39.16348404 </i>
    <i name="pawpsdc">    158.64689838 </i>
    <i name="pawaedc">   -161.33367689 </i>
    <i name="eentropy">      0.00000000 </i>
    <i name="bandstr">   -135.25629717 </i>
    <i name="atom">    344.16897840 </i>
    <i name="e_fr_energy">    -31.96012822 </i>
    <i name="e_wo_entrp">    -31.96012822 </i>
    <i name="e_0_energy">    -31.96012822 </i>
   </energy>
  </scstep>
  <structure>
   <crystal>
    <varray name="basis" >
     <v>       8.00000000       0.00000000       0.00000000 </v>
     <v>       0.00000000       8.00000000       0.00000000 </v>
     <v>       0.00000000       0.00000000       8.00000000 </v>
    </varray>
    <i name="volume">    512.00000000 </i>
    <varray name="rec_basis" >
     <v>       0.12500000       0.00000000       0.00000000 </v>
     <v>       0.00000000       0.12500000       0.00000000 </v>
     <v>       0.00000000       0.00000000       0.12500000 </v>
    </varray>
   </crystal>
   <varray name="positions" >
    <v>       0.00000000       0.11562178       0.15486116 </v>
    <v>       0.00000000       0.88437822       0.15486116 </v>
    <v>       0.00000000       0.11562178       0.84513884 </v>
    <v>       0.00000000       0.88437822       0.84513884 </v>
    <v>       0.00000000       0.00000000       0.08303284 </v>
    <v>       0.00000000       0.00000000       0.91696716 </v>
   </varray>
  </structure>
  <varray name="forces" >
   <v>       0.00000000       0.11115329       0.04736218 </v>
   <v>       0.00000000      -0.11115329       0.04736218 </v>
   <v>       0.00000000       0.11115329      -0.04736218 </v>
   <v>       0.00000000      -0.11115329      -0.04736218 </v>
   <v>       0.00000000       0.00000000       0.16994993 </v>
   <v>       0.00000000       0.00000000      -0.16994993 </v>
  </varray>
  <varray name="stress" >
   <v>      -1.59582081       0.00000000       0.00000000 </v>
   <v>       0.00000000      -0.16870071       0.00000000 </v>
   <v>       0.00000000       0.00000000       0.00314021 </v>
  </varray>
  <energy>
   <i name="e_fr_energy">    -31.96012822 </i>
   <i name="e_wo_entrp">    -31.96012822 </i>
   <i name="e_0_energy">      0.00000000 </i>
  </energy>
  <time name="totalsc">    8.06    8.13</time>
 </calculation>
 <calculation>
  <scstep>
   <time name="dav">    0.40    0.40</time>
   <time name="total">    1.42    1.43</time>
   <energy>
    <i name="alphaZ">      1.18323955 </i>
    <i name="ewald">    169.64828161 </i>
    <i name="hartreedc">   -449.08541633 </i>
    <i name="XCdc">     39.10210010 </i>
    <i name="pawpsdc">    158.66026364 </i>
    <i name="pawaedc">   -161.34725686 </i>
    <i name="eentropy">      0.00000000 </i>
    <i name="bandstr">   -134.29226951 </i>
    <i name="atom">    344.16897840 </i>
    <i name="e_fr_energy">    -31.96207940 </i>
    <i name="e_wo_entrp">    -31.96207940 </i>
    <i name="e_0_energy">    -31.96207940 </i>
   </energy>
  </scstep>
  <scstep>
   <time name="dav">    0.40    0.40</time>
   <time name="total">    1.39    1.40</time>
   <energy>
    <i name="e_fr_energy">    -31.96131289 </i>
    <i name="e_wo_entrp">    -31.96131289 </i>
    <i name="e_0_energy">    -31.96131289 </i>
   </energy>
  </scstep>
  <scstep>
   <time name="dav">    0.43    0.43</time>
   <time name="total">    1.41    1.42</time>
   <energy>
    <i name="e_fr_energy">    -31.96117737 </i>
    <i name="e_wo_entrp">    -31.96117737 </i>
    <i name="e_0_energy">    -31.96117737 </i>
   </energy>
  </scstep>
  <scstep>
   <time name="dav">    0.43    0.43</time>
   <time name="total">    1.27    1.28</time>
   <energy>
    <i name="alphaZ">      1.18323955 </i>
    <i name="ewald">    169.64828161 </i>
    <i name="hartreedc">   -448.42115126 </i>
    <i name="XCdc">     39.06729586 </i>
    <i name="pawpsdc">    156.73503411 </i>
    <i name="pawaedc">   -159.41174461 </i>
    <i name="eentropy">      0.00000000 </i>
    <i name="bandstr">   -134.93108623 </i>
    <i name="atom">    344.16897840 </i>
    <i name="e_fr_energy">    -31.96115257 </i>
    <i name="e_wo_entrp">    -31.96115257 </i>
    <i name="e_0_energy">    -31.96115257 </i>
   </energy>
  </scstep>
  <structure>
   <crystal>
    <varray name="basis" >
     <v>       8.00000000       0.00000000       0.00000000 </v>
     <v>       0.00000000       8.00000000       0.00000000 </v>
     <v>       0.00000000       0.00000000       8.00000000 </v>
    </varray>
    <i name="volume">    512.00000000 </i>
    <varray name="rec_basis" >
     <v>       0.12500000       0.00000000       0.00000000 </v>
     <v>       0.00000000       0.12500000       0.00000000 </v>
     <v>       0.00000000       0.00000000       0.12500000 </v>
    </varray>
   </crystal>
   <varray name="positions" >
    <v>       0.00000000       0.11643418       0.15524010 </v>
    <v>       0.00000000       0.88356582       0.15524010 </v>
    <v>       0.00000000       0.11643418       0.84475990 </v>
    <v>       0.00000000       0.88356582       0.84475990 </v>
    <v>       0.00000000       0.00000000       0.08351878 </v>
    <v>       0.00000000       0.00000000       0.91648122 </v>
   </varray>
  </structure>
  <varray name="forces" >
   <v>       0.00000000      -0.05437222      -0.02804395 </v>
   <v>       0.00000000       0.05437222      -0.02804395 </v>
   <v>       0.00000000      -0.05437222       0.02804395 </v>
   <v>       0.00000000       0.05437222       0.02804395 </v>
   <v>       0.00000000       0.00000000      -0.13291145 </v>
   <v>       0.00000000       0.00000000       0.13291145 </v>
  </varray>
  <varray name="stress" >
   <v>      -1.55788154       0.00000000       0.00000000 </v>
   <v>       0.00000000      -1.95022088       0.00000000 </v>
   <v>       0.00000000       0.00000000      -2.36573671 </v>
  </varray>
  <energy>
   <i name="e_fr_energy">    -31.96115257 </i>
   <i name="e_wo_entrp">    -31.96115257 </i>
   <i name="e_0_energy">      0.00000000 </i>
  </energy>
  <time name="totalsc">    7.42    7.50</time>
 </calculation>
 <calculation>
  <scstep>
   <time name="dav">    0.46    0.46</time>
   <time name="total">    1.44    1.44</time>
   <energy>
    <i name="alphaZ">      1.18323955 </i>
    <i name="ewald">    170.58150863 </i>
    <i name="hartreedc">   -449.03679478 </i>
    <i name="XCdc">     39.08957671 </i>
    <i name="pawpsdc">    156.56641165 </i>
    <i name="pawaedc">   -159.24348866 </i>
    <i name="eentropy">      0.00000000 </i>
    <i name="bandstr">   -135.27119915 </i>
    <i name="atom">    344.16897840 </i>
    <i name="e_fr_energy">    -31.96176765 </i>
    <i name="e_wo_entrp">    -31.96176765 </i>
    <i name="e_0_energy">    -31.96176765 </i>
   </energy>
  </scstep>
  <scstep>
   <time name="dav">    0.46    0.46</time>
   <time name="total">    1.57    1.66</time>
   <energy>
    <i name="e_fr_energy">    -31.96166100 </i>
    <i name="e_wo_entrp">    -31.96166100 </i>
    <i name="e_0_energy">    -31.96166100 </i>
   </energy>
  </scstep>
  <scstep>
   <time name="dav">    0.43    0.43</time>
   <time name="total">    1.38    1.40</time>
   <energy>
    <i name="alphaZ">      1.18323955 </i>
    <i name="ewald">    170.58150863 </i>
    <i name="hartreedc">   -449.31723529 </i>
    <i name="XCdc">     39.10413269 </i>
    <i name="pawpsdc">    157.33361140 </i>
    <i name="pawaedc">   -160.01489902 </i>
    <i name="eentropy">      0.00000000 </i>
    <i name="bandstr">   -135.00099110 </i>
    <i name="atom">    344.16897840 </i>
    <i name="e_fr_energy">    -31.96165473 </i>
    <i name="e_wo_entrp">    -31.96165473 </i>
    <i name="e_0_energy">    -31.96165473 </i>
   </energy>
  </scstep>
  <structure>
   <crystal>
    <varray name="basis" >
     <v>       8.00000000       0.00000000       0.00000000 </v>
     <v>       0.00000000       8.00000000       0.00000000 </v>
     <v>       0.00000000       0.00000000       8.00000000 </v>
    </varray>
    <i name="volume">    512.00000000 </i>
    <varray name="rec_basis" >
     <v>       0.12500000       0.00000000       0.00000000 </v>
     <v>       0.00000000       0.12500000       0.00000000 </v>
     <v>       0.00000000       0.00000000       0.12500000 </v>
    </varray>
   </crystal>
   <varray name="positions" >
    <v>       0.00000000       0.11613518       0.15510063 </v>
    <v>       0.00000000       0.88386482       0.15510063 </v>
    <v>       0.00000000       0.11613518       0.84489937 </v>
    <v>       0.00000000       0.88386482       0.84489937 </v>
    <v>       0.00000000       0.00000000       0.08333993 </v>
    <v>       0.00000000       0.00000000       0.91666007 </v>
   </varray>
  </structure>
  <varray name="forces" >
   <v>       0.00000000       0.01039670       0.00364517 </v>
   <v>       0.00000000      -0.01039670       0.00364517 </v>
   <v>       0.00000000       0.01039670      -0.00364517 </v>
   <v>       0.00000000      -0.01039670      -0.00364517 </v>
   <v>       0.00000000       0.00000000      -0.00766431 </v>
   <v>       0.00000000       0.00000000       0.00766431 </v>
  </varray>
  <varray name="stress" >
   <v>      -1.74196616       0.00000000       0.00000000 </v>
   <v>       0.00000000      -1.49116010       0.00000000 </v>
   <v>       0.00000000       0.00000000      -1.54529521 </v>
  </varray>
  <energy>
   <i name="e_fr_energy">    -31.96165473 </i>
   <i name="e_wo_entrp">    -31.96165473 </i>
   <i name="e_0_energy">      0.00000000 </i>
  </energy>
  <time name="totalsc">    6.30    6.45</time>
  <eigenvalues>
   <array>
    <dimension dim="1">band</dimension>
    <dimension dim="2">kpoint</dimension>
    <dimension dim="3">spin</dimension>
    <field>eigene</field>
    <field>occ</field>
    <set>
     <set comment="spin 1">
      <set comment="kpoint 1">
       <r>  -18.3936    1.0000 </r>
       <r>  -13.8197    1.0000 </r>
       <r>  -11.0410    1.0000 </r>
       <r>   -9.7789    1.0000 </r>
       <r>   -8.0979    1.0000 </r>
       <r>   -6.3694    1.0000 </r>
       <r>   -0.6670    0.0000 </r>
       <r>   -0.5030    0.0000 </r>
       <r>    1.2673    0.0000 </r>
       <r>    1.3340    0.0000 </r>
      </set>
     </set>
    </set>
   </array>
  </eigenvalues>
  <separator name="orbital magnetization" >
   <v name="MAGDIPOLOUT">      0.00000000      0.00000000      0.00000000</v>
  </separator>
  <dos>
   <i name="efermi">     -5.44507251 </i>
   <total>
    <array>
     <dimension dim="1">gridpoints</dimension>
     <dimension dim="2">spin</dimension>
     <field>energy</field>
     <field>total</field>
     <field>integrated</field>
     <set>
      <set comment="spin 1">
       <r>   -20.3936     0.0000     0.0000 </r>
       <r>   -20.3145     0.0000     0.0000 </r>
       <r>   -20.2354     0.0000     0.0000 </r>
       <r>   -20.1563     0.0000     0.0000 </r>
       <r>   -20.0773     0.0000     0.0000 </r>
       <r>   -19.9982     0.0000     0.0000 </r>
       <r>   -19.9191     0.0000     0.0000 </r>
       <r>   -19.8400     0.0000     0.0000 </r>
       <r>   -19.7609     0.0000     0.0000 </r>
       <r>   -19.6818     0.0000     0.0000 </r>
       <r>   -19.6027     0.0000     0.0000 </r>
       <r>   -19.5236     0.0000     0.0000 </r>
       <r>   -19.4445     0.0000     0.0000 </r>
       <r>   -19.3654     0.0000     0.0000 </r>
       <r>   -19.2863     0.0000     0.0000 </r>
       <r>   -19.2072     0.0000     0.0000 </r>
       <r>   -19.1281     0.0000     0.0000 </r>
       <r>   -19.0491     0.0000     0.0000 </r>
       <r>   -18.9700     0.0005     0.0000 </r>
       <r>   -18.8909     0.0050     0.0004 </r>
       <r>   -18.8118     0.0338     0.0031 </r>
       <r>   -18.7327     0.1694     0.0165 </r>
       <r>   -18.6536     0.6260     0.0660 </r>
       <r>   -18.5745     1.7052     0.2009 </r>
       <r>   -18.4954     3.4236     0.4717 </r>
       <r>   -18.4163     5.0677     0.8725 </r>
       <r>   -18.3372     5.5309     1.3099 </r>
       <r>   -18.2581     4.4508     1.6619 </r>
       <r>   -18.1790     2.6407     1.8708 </r>
       <r>   -18.1000     1.1550     1.9622 </r>
       <r>   -18.0209     0.3723     1.9916 </r>
       <r>   -17.9418     0.0884     1.9986 </r>
       <r>   -17.8627     0.0155     1.9998 </r>
       <r>   -17.7836     0.0020     2.0000 </r>
       <r>   -17.7045     0.0002     2.0000 </r>
       <r>   -17.6254     0.0000     2.0000 </r>
       <r>   -17.5463     0.0000     2.0000 </r>
       <r>   -17.4672     0.0000     2.0000 </r>
       <r>   -17.3881     0.0000     2.0000 </r>
       <r>   -17.3090     0.0000     2.0000 </r>
       <r>   -17.2299     0.0000     2.0000 </r>
       <r>   -17.1508     0.0000     2.0000 </r>
       <r>   -17.0718     0.0000     2.0000 </r>
       <r>   -16.9927     0.0000     2.0000 </r>
       <r>   -16.9136     0.0000     2.0000 </r>
       <r>   -16.8345     0.0000     2.0000 </r>
       <r>   -16.7554     0.0000     2.0000 </r>
       <r>   -16.6763     0.0000     2.0000 </r>
       <r>   -16.5972     0.0000     2.0000 </r>
       <r>   -16.5181     0.0000     2.0000 </r>
       <r>   -16.4390     0.0000     2.0000 </r>
       <r>   -16.3599     0.0000     2.0000 </r>
       <r>   -16.2808     0.0000     2.0000 </r>
       <r>   -16.2017     0.0000     2.0000 </r>
       <r>   -16.1227     0.0000     2.0000 </r>
       <r>   -16.0436     0.0000     2.0000 </r>
       <r>   -15.9645     0.0000     2.0000 </r>
       <r>   -15.8854     0.0000     2.0000 </r>
       <r>   -15.8063     0.0000     2.0000 </r>
       <r>   -15.7272     0.0000     2.0000 </r>
       <r>   -15.6481     0.0000     2.0000 </r>
       <r>   -15.5690     0.0000     2.0000 </r>
       <r>   -15.4899     0.0000     2.0000 </r>
       <r>   -15.4108     0.0000     2.0000 </r>
       <r>   -15.3317     0.0000     2.0000 </r>
       <r>   -15.2526     0.0000     2.0000 </r>
       <r>   -15.1735     0.0000     2.0000 </r>
       <r>   -15.0945     0.0000     2.0000 </r>
       <r>   -15.0154     0.0000     2.0000 </r>
       <r>   -14.9363     0.0000     2.0000 </r>
       <r>   -14.8572     0.0000     2.0000 </r>
       <r>   -14.7781     0.0000     2.0000 </r>
       <r>   -14.6990     0.0000     2.0000 </r>
       <r>   -14.6199     0.0000     2.0000 </r>
       <r>   -14.5408     0.0000     2.0000 </r>
       <r>   -14.4617     0.0001     2.0000 </r>
       <r>   -14.3826     0.0008     2.0001 </r>
       <r>   -14.3035     0.0070     2.0006 </r>
       <r>   -14.2244     0.0454     2.0042 </r>
       <r>   -14.1454     0.2161     2.0213 </r>
       <r>   -14.0663     0.7583     2.0813 </r>
       <r>   -13.9872     1.9611     2.2364 </r>
       <r>   -13.9081     3.7389     2.5321 </r>
       <r>   -13.8290     5.2552     2.9477 </r>
       <r>   -13.7499     5.4463     3.3785 </r>
       <r>   -13.6708     4.1617     3.7077 </r>
       <r>   -13.5917     2.3446     3.8931 </r>
       <r>   -13.5126     0.9737     3.9701 </r>
       <r>   -13.4335     0.2980     3.9937 </r>
       <r>   -13.3544     0.0672     3.9990 </r>
       <r>   -13.2753     0.0112     3.9999 </r>
       <r>   -13.1962     0.0014     4.0000 </r>
       <r>   -13.1172     0.0001     4.0000 </r>
       <r>   -13.0381     0.0000     4.0000 </r>
       <r>   -12.9590     0.0000     4.0000 </r>
       <r>   -12.8799     0.0000     4.0000 </r>
       <r>   -12.8008     0.0000     4.0000 </r>
       <r>   -12.7217     0.0000     4.0000 </r>
       <r>   -12.6426     0.0000     4.0000 </r>
       <r>   -12.5635     0.0000     4.0000 </r>
       <r>   -12.4844     0.0000     4.0000 </r>
       <r>   -12.4053     0.0000     4.0000 </r>
       <r>   -12.3262     0.0000     4.0000 </r>
       <r>   -12.2471     0.0000     4.0000 </r>
       <r>   -12.1680     0.0000     4.0000 </r>
       <r>   -12.0890     0.0000     4.0000 </r>
       <r>   -12.0099     0.0000     4.0000 </r>
       <r>   -11.9308     0.0000     4.0000 </r>
       <r>   -11.8517     0.0000     4.0000 </r>
       <r>   -11.7726     0.0000     4.0000 </r>
       <r>   -11.6935     0.0000     4.0000 </r>
       <r>   -11.6144     0.0006     4.0001 </r>
       <r>   -11.5353     0.0053     4.0005 </r>
       <r>   -11.4562     0.0360     4.0033 </r>
       <r>   -11.3771     0.1787     4.0175 </r>
       <r>   -11.2980     0.6530     4.0691 </r>
       <r>   -11.2189     1.7589     4.2082 </r>
       <r>   -11.1399     3.4921     4.4844 </r>
       <r>   -11.0608     5.1115     4.8887 </r>
       <r>   -10.9817     5.5165     5.3250 </r>
       <r>   -10.9026     4.3898     5.6722 </r>
       <r>   -10.8235     2.5755     5.8759 </r>
       <r>   -10.7444     1.1139     5.9640 </r>
       <r>   -10.6653     0.3551     5.9921 </r>
       <r>   -10.5862     0.0834     5.9987 </r>
       <r>   -10.5071     0.0144     5.9998 </r>
       <r>   -10.4280     0.0019     6.0000 </r>
       <r>   -10.3489     0.0008     6.0001 </r>
       <r>   -10.2698     0.0059     6.0005 </r>
       <r>   -10.1907     0.0389     6.0036 </r>
       <r>   -10.1117     0.1903     6.0186 </r>
       <r>   -10.0326     0.6862     6.0729 </r>
       <r>    -9.9535     1.8238     6.2172 </r>
       <r>    -9.8744     3.5732     6.4998 </r>
       <r>    -9.7953     5.1612     6.9080 </r>
       <r>    -9.7162     5.4967     7.3427 </r>
       <r>    -9.6371     4.3163     7.6841 </r>
       <r>    -9.5580     2.4990     7.8818 </r>
       <r>    -9.4789     1.0666     7.9661 </r>
       <r>    -9.3998     0.3355     7.9927 </r>
       <r>    -9.3207     0.0778     7.9988 </r>
       <r>    -9.2416     0.0133     7.9999 </r>
       <r>    -9.1626     0.0017     8.0000 </r>
       <r>    -9.0835     0.0002     8.0000 </r>
       <r>    -9.0044     0.0000     8.0000 </r>
       <r>    -8.9253     0.0000     8.0000 </r>
       <r>    -8.8462     0.0000     8.0000 </r>
       <r>    -8.7671     0.0000     8.0000 </r>
       <r>    -8.6880     0.0004     8.0000 </r>
       <r>    -8.6089     0.0034     8.0003 </r>
       <r>    -8.5298     0.0247     8.0023 </r>
       <r>    -8.4507     0.1308     8.0126 </r>
       <r>    -8.3716     0.5097     8.0529 </r>
       <r>    -8.2925     1.4640     8.1687 </r>
       <r>    -8.2134     3.0996     8.4138 </r>
       <r>    -8.1344     4.8381     8.7965 </r>
       <r>    -8.0553     5.5679     9.2369 </r>
       <r>    -7.9762     4.7247     9.6106 </r>
       <r>    -7.8971     2.9560     9.8444 </r>
       <r>    -7.8180     1.3634     9.9522 </r>
       <r>    -7.7389     0.4635     9.9889 </r>
       <r>    -7.6598     0.1161     9.9980 </r>
       <r>    -7.5807     0.0214     9.9997 </r>
       <r>    -7.5016     0.0029    10.0000 </r>
       <r>    -7.4225     0.0003    10.0000 </r>
       <r>    -7.3434     0.0000    10.0000 </r>
       <r>    -7.2643     0.0000    10.0000 </r>
       <r>    -7.1853     0.0000    10.0000 </r>
       <r>    -7.1062     0.0000    10.0000 </r>
       <r>    -7.0271     0.0000    10.0000 </r>
       <r>    -6.9480     0.0005    10.0000 </r>
       <r>    -6.8689     0.0047    10.0004 </r>
       <r>    -6.7898     0.0321    10.0030 </r>
       <r>    -6.7107     0.1624    10.0158 </r>
       <r>    -6.6316     0.6055    10.0637 </r>
       <r>    -6.5525     1.6639    10.1953 </r>
       <r>    -6.4734     3.3701    10.4618 </r>
       <r>    -6.3943     5.0323    10.8599 </r>
       <r>    -6.3152     5.5405    11.2981 </r>
       <r>    -6.2361     4.4977    11.6538 </r>
       <r>    -6.1571     2.6920    11.8667 </r>
       <r>    -6.0780     1.1878    11.9606 </r>
       <r>    -5.9989     0.3863    11.9912 </r>
       <r>    -5.9198     0.0926    11.9985 </r>
       <r>    -5.8407     0.0163    11.9998 </r>
       <r>    -5.7616     0.0021    12.0000 </r>
       <r>    -5.6825     0.0002    12.0000 </r>
       <r>    -5.6034     0.0000    12.0000 </r>
       <r>    -5.5243     0.0000    12.0000 </r>
       <r>    -5.4452     0.0000    12.0000 </r>
       <r>    -5.3661     0.0000    12.0000 </r>
       <r>    -5.2870     0.0000    12.0000 </r>
       <r>    -5.2080     0.0000    12.0000 </r>
       <r>    -5.1289     0.0000    12.0000 </r>
       <r>    -5.0498     0.0000    12.0000 </r>
       <r>    -4.9707     0.0000    12.0000 </r>
       <r>    -4.8916     0.0000    12.0000 </r>
       <r>    -4.8125     0.0000    12.0000 </r>
       <r>    -4.7334     0.0000    12.0000 </r>
       <r>    -4.6543     0.0000    12.0000 </r>
       <r>    -4.5752     0.0000    12.0000 </r>
       <r>    -4.4961     0.0000    12.0000 </r>
       <r>    -4.4170     0.0000    12.0000 </r>
       <r>    -4.3379     0.0000    12.0000 </r>
       <r>    -4.2588     0.0000    12.0000 </r>
       <r>    -4.1798     0.0000    12.0000 </r>
       <r>    -4.1007     0.0000    12.0000 </r>
       <r>    -4.0216     0.0000    12.0000 </r>
       <r>    -3.9425     0.0000    12.0000 </r>
       <r>    -3.8634     0.0000    12.0000 </r>
       <r>    -3.7843     0.0000    12.0000 </r>
       <r>    -3.7052     0.0000    12.0000 </r>
       <r>    -3.6261     0.0000    12.0000 </r>
       <r>    -3.5470     0.0000    12.0000 </r>
       <r>    -3.4679     0.0000    12.0000 </r>
       <r>    -3.3888     0.0000    12.0000 </r>
       <r>    -3.3097     0.0000    12.0000 </r>
       <r>    -3.2307     0.0000    12.0000 </r>
       <r>    -3.1516     0.0000    12.0000 </r>
       <r>    -3.0725     0.0000    12.0000 </r>
       <r>    -2.9934     0.0000    12.0000 </r>
       <r>    -2.9143     0.0000    12.0000 </r>
       <r>    -2.8352     0.0000    12.0000 </r>
       <r>    -2.7561     0.0000    12.0000 </r>
       <r>    -2.6770     0.0000    12.0000 </r>
       <r>    -2.5979     0.0000    12.0000 </r>
       <r>    -2.5188     0.0000    12.0000 </r>
       <r>    -2.4397     0.0000    12.0000 </r>
       <r>    -2.3606     0.0000    12.0000 </r>
       <r>    -2.2815     0.0000    12.0000 </r>
       <r>    -2.2025     0.0000    12.0000 </r>
       <r>    -2.1234     0.0000    12.0000 </r>
       <r>    -2.0443     0.0000    12.0000 </r>
       <r>    -1.9652     0.0000    12.0000 </r>
       <r>    -1.8861     0.0000    12.0000 </r>
       <r>    -1.8070     0.0000    12.0000 </r>
       <r>    -1.7279     0.0000    12.0000 </r>
       <r>    -1.6488     0.0000    12.0000 </r>
       <r>    -1.5697     0.0000    12.0000 </r>
       <r>    -1.4906     0.0000    12.0000 </r>
       <r>    -1.4115     0.0000    12.0000 </r>
       <r>    -1.3324     0.0000    12.0000 </r>
       <r>    -1.2533     0.0004    12.0000 </r>
       <r>    -1.1743     0.0038    12.0003 </r>
       <r>    -1.0952     0.0273    12.0025 </r>
       <r>    -1.0161     0.1438    12.0139 </r>
       <r>    -0.9370     0.5634    12.0584 </r>
       <r>    -0.8579     1.6538    12.1892 </r>
       <r>    -0.7788     3.6823    12.4805 </r>
       <r>    -0.6997     6.3344    12.9815 </r>
       <r>    -0.6206     8.6141    13.6628 </r>
       <r>    -0.5415     9.4527    14.4104 </r>
       <r>    -0.4624     8.4374    15.0777 </r>
       <r>    -0.3833     6.0673    15.5576 </r>
       <r>    -0.3042     3.4409    15.8298 </r>
       <r>    -0.2252     1.5045    15.9488 </r>
       <r>    -0.1461     0.4982    15.9882 </r>
       <r>    -0.0670     0.1235    15.9979 </r>
       <r>     0.0121     0.0227    15.9997 </r>
       <r>     0.0912     0.0031    16.0000 </r>
       <r>     0.1703     0.0003    16.0000 </r>
       <r>     0.2494     0.0000    16.0000 </r>
       <r>     0.3285     0.0000    16.0000 </r>
       <r>     0.4076     0.0000    16.0000 </r>
       <r>     0.4867     0.0000    16.0000 </r>
       <r>     0.5658     0.0000    16.0000 </r>
       <r>     0.6449     0.0001    16.0000 </r>
       <r>     0.7240     0.0016    16.0001 </r>
       <r>     0.8030     0.0135    16.0012 </r>
       <r>     0.8821     0.0842    16.0079 </r>
       <r>     0.9612     0.3919    16.0389 </r>
       <r>     1.0403     1.3596    16.1464 </r>
       <r>     1.1194     3.5224    16.4250 </r>
       <r>     1.1985     6.8258    16.9649 </r>
       <r>     1.2776     9.9054    17.7483 </r>
       <r>     1.3567    10.7727    18.6003 </r>
       <r>     1.4358     8.7819    19.2949 </r>
       <r>     1.5149     5.3639    19.7191 </r>
       <r>     1.5940     2.4523    19.9131 </r>
       <r>     1.6731     0.8381    19.9794 </r>
       <r>     1.7521     0.2137    19.9963 </r>
       <r>     1.8312     0.0406    19.9995 </r>
       <r>     1.9103     0.0057    19.9999 </r>
       <r>     1.9894     0.0006    20.0000 </r>
       <r>     2.0685     0.0000    20.0000 </r>
       <r>     2.1476     0.0000    20.0000 </r>
       <r>     2.2267     0.0000    20.0000 </r>
       <r>     2.3058     0.0000    20.0000 </r>
       <r>     2.3849     0.0000    20.0000 </r>
       <r>     2.4640     0.0000    20.0000 </r>
       <r>     2.5431     0.0000    20.0000 </r>
       <r>     2.6222     0.0000    20.0000 </r>
       <r>     2.7013     0.0000    20.0000 </r>
       <r>     2.7803     0.0000    20.0000 </r>
       <r>     2.8594     0.0000    20.0000 </r>
       <r>     2.9385     0.0000    20.0000 </r>
       <r>     3.0176     0.0000    20.0000 </r>
       <r>     3.0967     0.0000    20.0000 </r>
       <r>     3.1758     0.0000    20.0000 </r>
       <r>     3.2549     0.0000    20.0000 </r>
       <r>     3.3340     0.0000    20.0000 </r>
      </set>
     </set>
    </array>
   </total>
  </dos>
 </calculation>
 <structure name="finalpos" >
  <crystal>
   <varray name="basis" >
    <v>       8.00000000       0.00000000       0.00000000 </v>
    <v>       0.00000000       8.00000000       0.00000000 </v>
    <v>       0.00000000       0.00000000       8.00000000 </v>
   </varray>
   <i name="volume">    512.00000000 </i>
   <varray name="rec_basis" >
    <v>       0.12500000       0.00000000       0.00000000 </v>
    <v>       0.00000000       0.12500000       0.00000000 </v>
    <v>       0.00000000       0.00000000       0.12500000 </v>
   </varray>
  </crystal>
  <varray name="positions" >
   <v>       0.00000000       0.11613518       0.15510063 </v>
   <v>       0.00000000       0.88386482       0.15510063 </v>
   <v>       0.00000000       0.11613518       0.84489937 </v>
   <v>       0.00000000       0.88386482       0.84489937 </v>
   <v>       0.00000000       0.00000000       0.08333993 </v>
   <v>       0.00000000       0.00000000       0.91666007 </v>
  </varray>
 </structure>
</modeling>
