   5   5   0   0
  0.1024000E+03  0.8000000E-09  0.8000000E-09  0.8000000E-09  0.5000000E-15
  1.000000000000000E-004
  CAR 
 unknown system                          
      3.93292839    -35.95366939  301     -8.82662804      1.00000000
    -35.954  0.0000E+00  0.0000E+00
    -35.821  0.0000E+00  0.0000E+00
    -35.688  0.0000E+00  0.0000E+00
    -35.555  0.0000E+00  0.0000E+00
    -35.422  0.0000E+00  0.0000E+00
    -35.289  0.0000E+00  0.0000E+00
    -35.156  0.0000E+00  0.0000E+00
    -35.023  0.3006E-13  0.3997E-14
    -34.890  0.2680E-10  0.3567E-11
    -34.757  0.1005E-07  0.1340E-08
    -34.624  0.1591E-05  0.2129E-06
    -34.491  0.1069E-03  0.1443E-04
    -34.358  0.3073E-02  0.4230E-03
    -34.225  0.3804E-01  0.5481E-02
    -34.092  0.2047E+00  0.3270E-01
    -33.959  0.4822E+00  0.9680E-01
    -33.826  0.4993E+00  0.1632E+00
    -33.693  0.2274E+00  0.1934E+00
    -33.560  0.4536E-01  0.1995E+00
    -33.428  0.3935E-02  0.2000E+00
    -33.295  0.1472E-03  0.2000E+00
    -33.162  0.2355E-05  0.2000E+00
    -33.029  0.1601E-07  0.2000E+00
    -32.896  0.4595E-10  0.2000E+00
    -32.763  0.5545E-13  0.2000E+00
    -32.630  0.0000E+00  0.2000E+00
    -32.497  0.0000E+00  0.2000E+00
    -32.364  0.0000E+00  0.2000E+00
    -32.231  0.2004E-14  0.2000E+00
    -32.098  0.2688E-11  0.2000E+00
    -31.965  0.1576E-08  0.2000E+00
    -31.832  0.3892E-06  0.2000E+00
    -31.699  0.4068E-04  0.2000E+00
    -31.566  0.1811E-02  0.2002E+00
    -31.433  0.3458E-01  0.2048E+00
    -31.300  0.2858E+00  0.2428E+00
    -31.167  0.1030E+01  0.3798E+00
    -31.034  0.1630E+01  0.5965E+00
    -30.901  0.1135E+01  0.7474E+00
    -30.768  0.3468E+00  0.7935E+00
    -30.635  0.4629E-01  0.7996E+00
    -30.503  0.2676E-02  0.8000E+00
    -30.370  0.6643E-04  0.8000E+00
    -30.237  0.7029E-06  0.8000E+00
    -30.104  0.3150E-08  0.8000E+00
    -29.971  0.5948E-11  0.8000E+00
    -29.838  0.5010E-14  0.8000E+00
    -29.705  0.0000E+00  0.8000E+00
    -29.572  0.0000E+00  0.8000E+00
    -29.439  0.0000E+00  0.8000E+00
    -29.306  0.0000E+00  0.8000E+00
    -29.173  0.0000E+00  0.8000E+00
    -29.040  0.0000E+00  0.8000E+00
    -28.907  0.0000E+00  0.8000E+00
    -28.774  0.0000E+00  0.8000E+00
    -28.641  0.0000E+00  0.8000E+00
    -28.508  0.0000E+00  0.8000E+00
    -28.375  0.0000E+00  0.8000E+00
    -28.242  0.0000E+00  0.8000E+00
    -28.109  0.0000E+00  0.8000E+00
    -27.976  0.0000E+00  0.8000E+00
    -27.843  0.0000E+00  0.8000E+00
    -27.710  0.0000E+00  0.8000E+00
    -27.577  0.0000E+00  0.8000E+00
    -27.445  0.0000E+00  0.8000E+00
    -27.312  0.0000E+00  0.8000E+00
    -27.179  0.0000E+00  0.8000E+00
    -27.046  0.0000E+00  0.8000E+00
    -26.913  0.0000E+00  0.8000E+00
    -26.780  0.0000E+00  0.8000E+00
    -26.647  0.0000E+00  0.8000E+00
    -26.514  0.0000E+00  0.8000E+00
    -26.381  0.0000E+00  0.8000E+00
    -26.248  0.0000E+00  0.8000E+00
    -26.115  0.0000E+00  0.8000E+00
    -25.982  0.0000E+00  0.8000E+00
    -25.849  0.0000E+00  0.8000E+00
    -25.716  0.0000E+00  0.8000E+00
    -25.583  0.0000E+00  0.8000E+00
    -25.450  0.0000E+00  0.8000E+00
    -25.317  0.0000E+00  0.8000E+00
    -25.184  0.0000E+00  0.8000E+00
    -25.051  0.0000E+00  0.8000E+00
    -24.918  0.0000E+00  0.8000E+00
    -24.785  0.0000E+00  0.8000E+00
    -24.652  0.0000E+00  0.8000E+00
    -24.520  0.0000E+00  0.8000E+00
    -24.387  0.0000E+00  0.8000E+00
    -24.254  0.0000E+00  0.8000E+00
    -24.121  0.0000E+00  0.8000E+00
    -23.988  0.0000E+00  0.8000E+00
    -23.855  0.0000E+00  0.8000E+00
    -23.722  0.0000E+00  0.8000E+00
    -23.589  0.0000E+00  0.8000E+00
    -23.456  0.0000E+00  0.8000E+00
    -23.323  0.0000E+00  0.8000E+00
    -23.190  0.0000E+00  0.8000E+00
    -23.057  0.0000E+00  0.8000E+00
    -22.924  0.0000E+00  0.8000E+00
    -22.791  0.0000E+00  0.8000E+00
    -22.658  0.0000E+00  0.8000E+00
    -22.525  0.0000E+00  0.8000E+00
    -22.392  0.0000E+00  0.8000E+00
    -22.259  0.0000E+00  0.8000E+00
    -22.126  0.0000E+00  0.8000E+00
    -21.993  0.0000E+00  0.8000E+00
    -21.860  0.0000E+00  0.8000E+00
    -21.727  0.0000E+00  0.8000E+00
    -21.594  0.0000E+00  0.8000E+00
    -21.462  0.0000E+00  0.8000E+00
    -21.329  0.0000E+00  0.8000E+00
    -21.196  0.0000E+00  0.8000E+00
    -21.063  0.0000E+00  0.8000E+00
    -20.930  0.0000E+00  0.8000E+00
    -20.797  0.0000E+00  0.8000E+00
    -20.664  0.0000E+00  0.8000E+00
    -20.531  0.0000E+00  0.8000E+00
    -20.398  0.0000E+00  0.8000E+00
    -20.265  0.0000E+00  0.8000E+00
    -20.132  0.0000E+00  0.8000E+00
    -19.999  0.0000E+00  0.8000E+00
    -19.866  0.0000E+00  0.8000E+00
    -19.733  0.0000E+00  0.8000E+00
    -19.600  0.0000E+00  0.8000E+00
    -19.467  0.0000E+00  0.8000E+00
    -19.334  0.0000E+00  0.8000E+00
    -19.201  0.0000E+00  0.8000E+00
    -19.068  0.0000E+00  0.8000E+00
    -18.935  0.0000E+00  0.8000E+00
    -18.802  0.0000E+00  0.8000E+00
    -18.669  0.1219E-13  0.8000E+00
    -18.537  0.1210E-10  0.8000E+00
    -18.404  0.5052E-08  0.8000E+00
    -18.271  0.8899E-06  0.8000E+00
    -18.138  0.6649E-04  0.8000E+00
    -18.005  0.2122E-02  0.8003E+00
    -17.872  0.2914E-01  0.8042E+00
    -17.739  0.1738E+00  0.8273E+00
    -17.606  0.4534E+00  0.8876E+00
    -17.473  0.5198E+00  0.9567E+00
    -17.340  0.2622E+00  0.9915E+00
    -17.207  0.5795E-01  0.9992E+00
    -17.074  0.5576E-02  0.1000E+01
    -16.941  0.2316E-03  0.1000E+01
    -16.808  0.4119E-05  0.1000E+01
    -16.675  0.3114E-07  0.1000E+01
    -16.542  0.9950E-10  0.1000E+01
    -16.409  0.1338E-12  0.1000E+01
    -16.276  0.2004E-14  0.1000E+01
    -16.143  0.2732E-11  0.1000E+01
    -16.010  0.1599E-08  0.1000E+01
    -15.877  0.3940E-06  0.1000E+01
    -15.744  0.4110E-04  0.1000E+01
    -15.612  0.1825E-02  0.1000E+01
    -15.479  0.3479E-01  0.1005E+01
    -15.346  0.2869E+00  0.1043E+01
    -15.213  0.1032E+01  0.1180E+01
    -15.080  0.1630E+01  0.1397E+01
    -14.947  0.1133E+01  0.1548E+01
    -14.814  0.3455E+00  0.1594E+01
    -14.681  0.4602E-01  0.1600E+01
    -14.548  0.2655E-02  0.1600E+01
    -14.415  0.6577E-04  0.1600E+01
    -14.282  0.6946E-06  0.1600E+01
    -14.149  0.3106E-08  0.1600E+01
    -14.016  0.5853E-11  0.1600E+01
    -13.883  0.4509E-14  0.1600E+01
    -13.750  0.0000E+00  0.1600E+01
    -13.617  0.0000E+00  0.1600E+01
    -13.484  0.0000E+00  0.1600E+01
    -13.351  0.0000E+00  0.1600E+01
    -13.218  0.0000E+00  0.1600E+01
    -13.085  0.0000E+00  0.1600E+01
    -12.952  0.0000E+00  0.1600E+01
    -12.819  0.0000E+00  0.1600E+01
    -12.686  0.0000E+00  0.1600E+01
    -12.554  0.4743E-13  0.1600E+01
    -12.421  0.4347E-10  0.1600E+01
    -12.288  0.1677E-07  0.1600E+01
    -12.155  0.2732E-05  0.1600E+01
    -12.022  0.1888E-03  0.1600E+01
    -11.889  0.5578E-02  0.1601E+01
    -11.756  0.7099E-01  0.1610E+01
    -11.623  0.3925E+00  0.1662E+01
    -11.490  0.9508E+00  0.1789E+01
    -11.357  0.1032E+01  0.1926E+01
    -11.224  0.6766E+00  0.2016E+01
    -11.091  0.9568E+00  0.2143E+01
    -10.958  0.1600E+01  0.2356E+01
    -10.825  0.1296E+01  0.2528E+01
    -10.692  0.4633E+00  0.2590E+01
    -10.559  0.7244E-01  0.2599E+01
    -10.426  0.4923E-02  0.2600E+01
    -10.293  0.6702E-03  0.2600E+01
    -10.160  0.1353E-01  0.2602E+01
    -10.027  0.1498E+00  0.2622E+01
     -9.894  0.7218E+00  0.2718E+01
     -9.761  0.1524E+01  0.2920E+01
     -9.629  0.1415E+01  0.3108E+01
     -9.496  0.5774E+00  0.3185E+01
     -9.363  0.1031E+00  0.3199E+01
     -9.230  0.8004E-02  0.3200E+01
     -9.097  0.2675E-03  0.3200E+01
     -8.964  0.3821E-05  0.3200E+01
     -8.831  0.2316E-07  0.3200E+01
     -8.698  0.5926E-10  0.3200E+01
     -8.565  0.6363E-13  0.3200E+01
     -8.432  0.0000E+00  0.3200E+01
     -8.299  0.0000E+00  0.3200E+01
     -8.166  0.0000E+00  0.3200E+01
     -8.033  0.0000E+00  0.3200E+01
     -7.900  0.0000E+00  0.3200E+01
     -7.767  0.0000E+00  0.3200E+01
     -7.634  0.0000E+00  0.3200E+01
     -7.501  0.0000E+00  0.3200E+01
     -7.368  0.0000E+00  0.3200E+01
     -7.235  0.0000E+00  0.3200E+01
     -7.102  0.0000E+00  0.3200E+01
     -6.969  0.0000E+00  0.3200E+01
     -6.836  0.0000E+00  0.3200E+01
     -6.703  0.0000E+00  0.3200E+01
     -6.571  0.0000E+00  0.3200E+01
     -6.438  0.0000E+00  0.3200E+01
     -6.305  0.0000E+00  0.3200E+01
     -6.172  0.0000E+00  0.3200E+01
     -6.039  0.0000E+00  0.3200E+01
     -5.906  0.0000E+00  0.3200E+01
     -5.773  0.0000E+00  0.3200E+01
     -5.640  0.0000E+00  0.3200E+01
     -5.507  0.0000E+00  0.3200E+01
     -5.374  0.0000E+00  0.3200E+01
     -5.241  0.0000E+00  0.3200E+01
     -5.108  0.0000E+00  0.3200E+01
     -4.975  0.0000E+00  0.3200E+01
     -4.842  0.0000E+00  0.3200E+01
     -4.709  0.0000E+00  0.3200E+01
     -4.576  0.0000E+00  0.3200E+01
     -4.443  0.0000E+00  0.3200E+01
     -4.310  0.0000E+00  0.3200E+01
     -4.177  0.0000E+00  0.3200E+01
     -4.044  0.0000E+00  0.3200E+01
     -3.911  0.0000E+00  0.3200E+01
     -3.778  0.0000E+00  0.3200E+01
     -3.646  0.0000E+00  0.3200E+01
     -3.513  0.0000E+00  0.3200E+01
     -3.380  0.0000E+00  0.3200E+01
     -3.247  0.0000E+00  0.3200E+01
     -3.114  0.0000E+00  0.3200E+01
     -2.981  0.0000E+00  0.3200E+01
     -2.848  0.0000E+00  0.3200E+01
     -2.715  0.0000E+00  0.3200E+01
     -2.582  0.0000E+00  0.3200E+01
     -2.449  0.0000E+00  0.3200E+01
     -2.316  0.0000E+00  0.3200E+01
     -2.183  0.0000E+00  0.3200E+01
     -2.050  0.0000E+00  0.3200E+01
     -1.917  0.0000E+00  0.3200E+01
     -1.784  0.0000E+00  0.3200E+01
     -1.651  0.0000E+00  0.3200E+01
     -1.518  0.2505E-15  0.3200E+01
     -1.385  0.3949E-12  0.3200E+01
     -1.252  0.2568E-09  0.3200E+01
     -1.119  0.7031E-07  0.3200E+01
     -0.986  0.8141E-05  0.3200E+01
     -0.853  0.4011E-03  0.3200E+01
     -0.721  0.8471E-02  0.3201E+01
     -0.588  0.7733E-01  0.3211E+01
     -0.455  0.3077E+00  0.3252E+01
     -0.322  0.5370E+00  0.3324E+01
     -0.189  0.4124E+00  0.3379E+01
     -0.056  0.1391E+00  0.3397E+01
      0.077  0.2050E-01  0.3400E+01
      0.210  0.1310E-02  0.3400E+01
      0.343  0.3600E-04  0.3400E+01
      0.476  0.4220E-06  0.3400E+01
      0.609  0.2096E-08  0.3400E+01
      0.742  0.4389E-11  0.3400E+01
      0.875  0.1702E-12  0.3400E+01
      1.008  0.1378E-09  0.3400E+01
      1.141  0.4803E-07  0.3400E+01
      1.274  0.7066E-05  0.3400E+01
      1.407  0.4416E-03  0.3400E+01
      1.540  0.1180E-01  0.3402E+01
      1.673  0.1361E+00  0.3420E+01
      1.806  0.6822E+00  0.3510E+01
      1.939  0.1498E+01  0.3710E+01
      2.072  0.1446E+01  0.3902E+01
      2.205  0.6141E+00  0.3984E+01
      2.337  0.1141E+00  0.3999E+01
      2.470  0.9218E-02  0.4000E+01
      2.603  0.3208E-03  0.4000E+01
      2.736  0.4774E-05  0.4000E+01
      2.869  0.3015E-07  0.4000E+01
      3.002  0.8039E-10  0.4000E+01
      3.135  0.9018E-13  0.4000E+01
      3.268  0.0000E+00  0.4000E+01
      3.401  0.0000E+00  0.4000E+01
      3.534  0.0000E+00  0.4000E+01
      3.667  0.0000E+00  0.4000E+01
      3.800  0.0000E+00  0.4000E+01
      3.933  0.0000E+00  0.4000E+01
