    5    5   10    1
  0.1024000E+03  0.8000000E-09  0.8000000E-09  0.8000000E-09  0.5000000E-15
  1.000000000000000E-004
  CAR 
 unknown system                          
   32    1   20
 
  0.0000000E+00  0.0000000E+00  0.0000000E+00  0.1000000E+01
   1      -33.953669
   2      -31.092985
   3      -31.092985
   4      -31.092985
   5      -17.583682
   6      -15.138666
   7      -15.138666
   8      -15.138666
   9      -11.479852
  10      -11.479852
  11      -10.991400
  12      -10.991400
  13      -10.991400
  14       -9.773494
  15       -9.773494
  16       -9.773494
  17       -0.364426
  18        1.932928
  19        1.932928
  20        1.932928
