       N       E                     dE             d eps       ncg     rms          rms(c)
DAV:   1     0.280495309901E+03    0.28050E+03   -0.11474E+04    56   0.102E+03
DAV:   2     0.228852264635E+02   -0.25761E+03   -0.24972E+03    72   0.241E+02
DAV:   3    -0.264048744142E+02   -0.49290E+02   -0.48988E+02    44   0.113E+02
DAV:   4    -0.275569602479E+02   -0.11521E+01   -0.11516E+01    48   0.179E+01
DAV:   5    -0.275880834096E+02   -0.31123E-01   -0.31039E-01    48   0.272E+00    0.899E+00
DAV:   6    -0.258776934578E+02    0.17104E+01   -0.83895E+00    44   0.204E+01    0.373E+00
DAV:   7    -0.258580904974E+02    0.19603E-01   -0.34488E-01    44   0.473E+00    0.207E+00
DAV:   8    -0.258751454484E+02   -0.17055E-01   -0.46118E-02    56   0.201E+00    0.255E-01
DAV:   9    -0.258763260511E+02   -0.11806E-02   -0.82231E-03    40   0.674E-01    0.110E-01
DAV:  10    -0.258766155090E+02   -0.28946E-03   -0.50686E-04    44   0.239E-01    0.214E-02
DAV:  11    -0.258767065235E+02   -0.91015E-04   -0.56526E-05    32   0.639E-02
   1 F= -.25876707E+02 E0= -.25876707E+02  d E =-.258767E+02
       N       E                     dE             d eps       ncg     rms          rms(c)
DAV:   1    -0.257671619338E+02    0.10945E+00   -0.48041E+01    48   0.631E+01    0.183E+00
DAV:   2    -0.258438402536E+02   -0.76678E-01   -0.12347E+00    48   0.912E+00    0.946E-01
DAV:   3    -0.258355008209E+02    0.83394E-02   -0.16125E-02    48   0.126E+00    0.576E-01
DAV:   4    -0.258410506099E+02   -0.55498E-02   -0.26450E-02    48   0.130E+00    0.169E-01
DAV:   5    -0.258414334568E+02   -0.38285E-03   -0.16602E-02    48   0.885E-01    0.151E-01
DAV:   6    -0.258409270222E+02    0.50643E-03   -0.24176E-03    48   0.386E-01    0.376E-02
DAV:   7    -0.258410204711E+02   -0.93449E-04   -0.50030E-04    32   0.128E-01
   2 F= -.25841020E+02 E0= -.25841020E+02  d E =0.356861E-01
       N       E                     dE             d eps       ncg     rms          rms(c)
DAV:   1    -0.258746492601E+02   -0.33722E-01   -0.18321E+01    48   0.397E+01    0.103E+00
DAV:   2    -0.259031214409E+02   -0.28472E-01   -0.42046E-01    48   0.521E+00    0.584E-01
DAV:   3    -0.258999318904E+02    0.31896E-02   -0.55823E-03    48   0.755E-01    0.357E-01
DAV:   4    -0.259019058230E+02   -0.19739E-02   -0.14321E-02    48   0.896E-01    0.107E-01
DAV:   5    -0.259018183593E+02    0.87464E-04   -0.96503E-04    44   0.236E-01
   3 F= -.25901818E+02 E0= -.25901818E+02  d E =-.251118E-01
