 vasp.5.2.12 11Nov11 complex                                                    
  
 executed on             LinuxIFC date 2012.11.03  02:53:42
 running on    1 nodes
 distr:  one band on    1 nodes,    1 groups


--------------------------------------------------------------------------------------------------------


 INCAR:
 POTCAR:   PAW_PBE C 08Apr2002                    
 POTCAR:   PAW_PBE F 08Apr2002                    
 POTCAR:   PAW_PBE C 08Apr2002                    
   VRHFIN =C: s2p2                                                              
   LEXCH  = PE                                                                  
   EATOM  =   147.1560 eV,   10.8157 Ry                                         
                                                                                
   TITEL  = PAW_PBE C 08Apr2002                                                 
   LULTRA =        F    use ultrasoft PP ?                                      
   IUNSCR =        0    unscreen: 0-lin 1-nonlin 2-no                           
   RPACOR =     .000    partial core radius                                     
   POMASS =   12.011; ZVAL   =    4.000    mass and valenz                      
   RCORE  =    1.500    outmost cutoff radius                                   
   RWIGS  =    1.630; RWIGS  =     .863    wigner-seitz radius (au A)           
   ENMAX  =  400.000; ENMIN  =  300.000 eV                                      
   ICORE  =        2    local potential                                         
   LCOR   =        T    correct aug charges                                     
   LPAW   =        T    paw PP                                                  
   EAUG   =  644.873                                                            
   DEXC   =     .000                                                            
   RMAX   =    2.266    core radius for proj-oper                               
   RAUG   =    1.300    factor for augmentation sphere                          
   RDEP   =    1.501    radius for radial grids                                 
   RDEPT  =    1.300    core radius for aug-charge                              
   QCUT   =   -5.516; QGAM   =   11.032    optimization parameters              
                                                                                
   Description                                                                  
     l     E      TYP  RCUT    TYP  RCUT                                        
     0   .000     23  1.200                                                     
     0   .000     23  1.200                                                     
     1   .000     23  1.500                                                     
     1  2.500     23  1.500                                                     
     2   .000      7  1.500                                                     
  local pseudopotential read in
  atomic valenz-charges read in
  non local Contribution for L=           0  read in
    real space projection operators read in
  non local Contribution for L=           0  read in
    real space projection operators read in
  non local Contribution for L=           1  read in
    real space projection operators read in
  non local Contribution for L=           1  read in
    real space projection operators read in
    PAW grid and wavefunctions read in
 
   number of l-projection  operators is LMAX  =           4
   number of lm-projection operators is LMMAX =           8
 
 POTCAR:   PAW_PBE F 08Apr2002                    
   VRHFIN =F: s2p5                                                              
   LEXCH  = PE                                                                  
   EATOM  =   659.4942 eV,   48.4715 Ry                                         
                                                                                
   TITEL  = PAW_PBE F 08Apr2002                                                 
   LULTRA =        F    use ultrasoft PP ?                                      
   IUNSCR =        0    unscreen: 0-lin 1-nonlin 2-no                           
   RPACOR =     .000    partial core radius                                     
   POMASS =   18.998; ZVAL   =    7.000    mass and valenz                      
   RCORE  =    1.520    outmost cutoff radius                                   
   RWIGS  =    1.500; RWIGS  =     .794    wigner-seitz radius (au A)           
   ENMAX  =  400.000; ENMIN  =  300.000 eV                                      
   ICORE  =        2    local potential                                         
   LCOR   =        T    correct aug charges                                     
   LPAW   =        T    paw PP                                                  
   EAUG   =  613.614                                                            
   DEXC   =     .000                                                            
   RMAX   =    2.254    core radius for proj-oper                               
   RAUG   =    1.300    factor for augmentation sphere                          
   RDEP   =    1.539    radius for radial grids                                 
   QCUT   =   -5.545; QGAM   =   11.091    optimization parameters              
                                                                                
   Description                                                                  
     l     E      TYP  RCUT    TYP  RCUT                                        
     0   .000     23  1.200                                                     
     0  -.700     23  1.200                                                     
     1   .000     23  1.520                                                     
     1   .100     23  1.520                                                     
     2   .000      7  1.500                                                     
  local pseudopotential read in
  atomic valenz-charges read in
  non local Contribution for L=           0  read in
    real space projection operators read in
  non local Contribution for L=           0  read in
    real space projection operators read in
  non local Contribution for L=           1  read in
    real space projection operators read in
  non local Contribution for L=           1  read in
    real space projection operators read in
    PAW grid and wavefunctions read in
 
   number of l-projection  operators is LMAX  =           4
   number of lm-projection operators is LMMAX =           8
 
 PAW_PBE C 08Apr2002                    :
 energy of atom  1       EATOM= -147.1560
 kinetic energy error for atom=    0.0116 (will be added to EATOM!!)
 PAW_PBE F 08Apr2002                    :
 energy of atom  2       EATOM= -659.4942
 kinetic energy error for atom=    0.0654 (will be added to EATOM!!)
 
 
 POSCAR:  C  F                                   
  positions in cartesian coordinates
  No initial velocities read in
 exchange correlation table for  LEXCH =        8
   RHO(1)=    0.500       N(1)  =     2000
   RHO(2)=  100.500       N(2)  =     4000
 


--------------------------------------------------------------------------------------------------------


 ion  position               nearest neighbor table
   1  0.000  0.000  0.000-   2 1.33   3 1.33   4 1.33   5 1.33
   2  0.096  0.096  0.096-   1 1.33
   3  0.904  0.904  0.096-   1 1.33
   4  0.904  0.096  0.904-   1 1.33
   5  0.096  0.904  0.904-   1 1.33
 
  LATTYP: Found a simple cubic cell.
 ALAT       =     8.0000000000
  
  Lattice vectors:
  
 A1 = (   8.0000000000,   0.0000000000,   0.0000000000)
 A2 = (   0.0000000000,   8.0000000000,   0.0000000000)
 A3 = (   0.0000000000,   0.0000000000,   8.0000000000)
 Subroutine PRICEL returns:
 Original cell was already a primitive cell.
 

Analysis of symmetry for initial positions (statically):

 Routine SETGRP: Setting up the symmetry group for a 
 simple cubic supercell.


 Subroutine GETGRP returns: Found 24 space group operations
 (whereof 24 operations were pure point group operations)
 out of a pool of 48 trial point group operations.


The static configuration has the point symmetry T_d .

Analysis of symmetry for dynamics (positions and initial velocities):

 Subroutine DYNSYM returns: Found 24 space group operations
 (whereof 24 operations were pure point group operations)
 out of a pool of 24 trial space group operations
 (whereof 24 operations were pure point group operations)
 and found also     1 'primitive' translations


The dynamic configuration has the point symmetry T_d .
 
 
 KPOINTS: KPOINTS created by Atomic Simulation Env

Automatic generation of k-mesh.
 
 Subroutine IBZKPT returns following result:
 ===========================================
 
 Found      1 irreducible k-points:
 
 Following reciprocal coordinates:
            Coordinates               Weight
  0.000000  0.000000  0.000000      1.000000
 
 Following cartesian coordinates:
            Coordinates               Weight
  0.000000  0.000000  0.000000      1.000000
 


--------------------------------------------------------------------------------------------------------




 Dimension of arrays:
   k-points           NKPTS =      1   k-points in BZ     NKDIM =      1   number of bands    NBANDS=     20
   number of dos      NEDOS =    301   number of ions     NIONS =      5
   non local maximal  LDIM  =      4   non local SUM 2l+1 LMDIM =      8
   total plane-waves  NPLWV =  74088
   max r-space proj   IRMAX =      1   max aug-charges    IRDMAX=   2039
   dimension x,y,z NGX =    42 NGY =   42 NGZ =   42
   dimension x,y,z NGXF=    84 NGYF=   84 NGZF=   84
   support grid    NGXF=    84 NGYF=   84 NGZF=   84
   ions per type =               1   4
 NGX,Y,Z   is equivalent  to a cutoff of   8.73,  8.73,  8.73 a.u.
 NGXF,Y,Z  is equivalent  to a cutoff of  17.46, 17.46, 17.46 a.u.


 I would recommend the setting:
   dimension x,y,z NGX =    42 NGY =   42 NGZ =   42
 SYSTEM =  unknown system                          
 POSCAR =   C  F                                   

 Startparameter for this run:
   NWRITE =      2    write-flag & timer
   PREC   = normal    normal or accurate (medium, high low for compatibility)
   ISTART =      0    job   : 0-new  1-cont  2-samecut
   ICHARG =      2    charge: 1-file 2-atom 10-const
   ISPIN  =      1    spin polarized calculation?
   LNONCOLLINEAR =      F non collinear calculations
   LSORBIT =      F    spin-orbit coupling
   INIWAV =      1    electr: 0-lowe 1-rand  2-diag
   LASPH  =      F    aspherical Exc in radial PAW
   METAGGA=      F    non-selfconsistent MetaGGA calc.

 Electronic Relaxation 1
   ENCUT  =  450.0 eV  33.07 Ry    5.75 a.u.  13.84 13.84 13.84*2*pi/ulx,y,z
   ENINI  =  450.0     initial cutoff
   ENAUG  =  644.9 eV  augmentation charge cutoff
   NELM   =     60;   NELMIN=  2; NELMDL= -5     # of ELM steps 
   EDIFF  = 0.1E-03   stopping-criterion for ELM
   LREAL  =      F    real-space projection
   NLSPLINE    = F    spline interpolate recip. space projectors
   LCOMPAT=      F    compatible to vasp.4.4
   GGA_COMPAT  = T    GGA compatible to vasp.4.4-vasp.4.6
   LMAXPAW     = -100 max onsite density
   LMAXMIX     =    2 max onsite mixed and CHGCAR
   VOSKOWN=      0    Vosko Wilk Nusair interpolation
   ROPT   =    0.00000   0.00000
 Ionic relaxation
   EDIFFG = 0.1E-02   stopping-criterion for IOM
   NSW    =     10    number of steps for IOM
   NBLOCK =      1;   KBLOCK =     10    inner block; outer block 
   IBRION =      2    ionic relax: 0-MD 1-quasi-New 2-CG
   NFREE  =      1    steps in history (QN), initial steepest desc. (CG)
   ISIF   =      2    stress and relaxation
   IWAVPR =     11    prediction:  0-non 1-charg 2-wave 3-comb
   ISYM   =      2    0-nonsym 1-usesym 2-fastsym
   LCORR  =      T    Harris-Foulkes like correction to forces

   POTIM  = 0.5000    time-step for ionic-motion
   TEIN   =    0.0    initial temperature
   TEBEG  =    0.0;   TEEND  =   0.0 temperature during run
   SMASS  =  -3.00    Nose mass-parameter (am)
   estimated Nose-frequenzy (Omega)   =  0.10E-29 period in steps =****** mass=  -0.146E-26a.u.
   SCALEE = 1.0000    scale energy and forces
   NPACO  =    256;   APACO  = 16.0  distance and # of slots for P.C.
   PSTRESS=    0.0 pullay stress

  Mass of Ions in am
   POMASS =  12.01 19.00
  Ionic Valenz
   ZVAL   =   4.00  7.00
  Atomic Wigner-Seitz radii
   RWIGS  =  -1.00 -1.00
  virtual crystal weights 
   VCA    =   1.00  1.00
   NELECT =      32.0000    total number of electrons
   NUPDOWN=      -1.0000    fix difference up-down

 DOS related values:
   EMIN   =  10.00;   EMAX   =-10.00  energy-range for DOS
   EFERMI =   0.00
   ISMEAR =     0;   SIGMA  =   0.20  broadening in eV -4-tet -1-fermi 0-gaus

 Electronic relaxation 2 (details)
   IALGO  =     38    algorithm
   LDIAG  =      T    sub-space diagonalisation (order eigenvalues)
   LSUBROT=      T    optimize rotation matrix (better conditioning)
   TURBO    =      0    0=normal 1=particle mesh
   IRESTART =      0    0=no restart 2=restart with 2 vectors
   NREBOOT  =      0    no. of reboots
   NMIN     =      0    reboot dimension
   EREF     =   0.00    reference energy to select bands
   IMIX   =      4    mixing-type and parameters
     AMIX     =   0.40;   BMIX     =  1.00
     AMIX_MAG =   1.60;   BMIX_MAG =  1.00
     AMIN     =   0.10
     WC   =   100.;   INIMIX=   1;  MIXPRE=   1

 Intra band minimization:
   WEIMIN = 0.0010     energy-eigenvalue tresh-hold
   EBREAK =  0.13E-05  absolut break condition
   DEPER  =   0.30     relativ break condition  

   TIME   =   0.40     timestep for ELM

  volume/ion in A,a.u.               =     102.40       691.03
  Fermi-wavevector in a.u.,A,eV,Ry     =   0.649683  1.227723  5.742856  0.422088
  Thomas-Fermi vector in A             =   1.718718
 
 Write flags
   LWAVE  =      T    write WAVECAR
   LCHARG =      T    write CHGCAR
   LVTOT  =      F    write LOCPOT, total local potential
   LVHAR  =      F    write LOCPOT, Hartree potential only
   LELF   =      F    write electronic localiz. function (ELF)
   LORBIT =      0    0 simple, 1 ext, 2 COOP (PROOUT)


 Dipole corrections
   LMONO  =      F    monopole corrections only (constant potential shift)
   LDIPOL =      F    correct potential (dipole corrections)
   IDIPOL =      0    1-x, 2-y, 3-z, 4-all directions 
   EPSILON=  1.0000000 bulk dielectric constant

 Exchange correlation treatment:
   GGA     =    --    GGA type
   LEXCH   =     8    internal setting for exchange type
   VOSKOWN=      0    Vosko Wilk Nusair interpolation
   LHFCALC =     F    Hartree Fock is set to
   LHFONE  =     F    Hartree Fock one center treatment
   AEXX    =    0.0000 exact exchange contribution

 Linear response parameters
   LEPSILON=     F    determine dielectric tensor
   LRPA    =     F    only Hartree local field effects (RPA)
   LNABLA  =     F    use nabla operator in PAW spheres
   LVEL    =     F    velocity operator in full k-point grid
   LINTERFAST=   F  fast interpolation
   KINTER  =     0    interpolate to denser k-point grid
   CSHIFT  =0.1000    complex shift for real part using Kramers Kronig
   OMEGAMAX=  -1.0    maximum frequency
   RTIME   =    0.100 relaxation time in fs

 Orbital magnetization related:
   ORBITALMAG=     F  switch on orbital magnetization
   LCHIMAG   =     F  perturbation theory with respect to B field
   DQ        =  0.001000  dq finite difference perturbation B field



--------------------------------------------------------------------------------------------------------


 conjugate gradient relaxation of ions
 charge density and potential will be updated during run
 non-spin polarized calculation
 Variant of blocked Davidson
 Davidson routine will perform the subspace rotation
 perform sub-space diagonalisation
    after iterative eigenvector-optimisation
 modified Broyden-mixing scheme, WC =      100.0
 initial mixing is a Kerker type mixing with AMIX =  0.4000 and BMIX =      1.0000
 Hartree-type preconditioning will be used
 using additional bands            4
 reciprocal scheme for non local part
 calculate Harris-corrections to forces 
   (improved forces if not selfconsistent)
 use gradient corrections 
 use of overlap-Matrix (Vanderbilt PP)
 Gauss-broadening in eV      SIGMA  =   0.20


--------------------------------------------------------------------------------------------------------


  energy-cutoff  :      450.00
  volume of cell :      512.00
      direct lattice vectors                 reciprocal lattice vectors
     8.000000000  0.000000000  0.000000000     0.125000000  0.000000000  0.000000000
     0.000000000  8.000000000  0.000000000     0.000000000  0.125000000  0.000000000
     0.000000000  0.000000000  8.000000000     0.000000000  0.000000000  0.125000000

  length of vectors
     8.000000000  8.000000000  8.000000000     0.125000000  0.125000000  0.125000000


 
 k-points in units of 2pi/SCALE and weight: KPOINTS created by Atomic Simulation Env
   0.00000000  0.00000000  0.00000000       1.000
 
 k-points in reciprocal lattice and weights: KPOINTS created by Atomic Simulation Env
   0.00000000  0.00000000  0.00000000       1.000
 
 position of ions in fractional coordinates (direct lattice) 
   0.00000000  0.00000000  0.00000000
   0.09592950  0.09592950  0.09592950
   0.90407050  0.90407050  0.09592950
   0.90407050  0.09592950  0.90407050
   0.09592950  0.90407050  0.90407050
 
 position of ions in cartesian coordinates  (Angst):
   0.00000000  0.00000000  0.00000000
   0.76743600  0.76743600  0.76743600
   7.23256400  7.23256400  0.76743600
   7.23256400  0.76743600  7.23256400
   0.76743600  7.23256400  7.23256400
 


--------------------------------------------------------------------------------------------------------


 k-point  1 :  0.00000.00000.0000  plane waves:   11067

 maximum and minimum number of plane-waves per node :     11067    11067

 maximum number of plane-waves:     11067
 maximum index in each direction: 
   IXMAX=   13   IYMAX=   13   IZMAX=   13
   IXMIN=  -13   IYMIN=  -13   IZMIN=  -13

 WARNING: aliasing errors must be expected set NGX to  54 to avoid them
 WARNING: aliasing errors must be expected set NGY to  54 to avoid them
 WARNING: aliasing errors must be expected set NGZ to  54 to avoid them
 aliasing errors are usually negligible using standard VASP settings
 and one can safely disregard these warnings

 serial   3D FFT for wavefunctions
 parallel 3D FFT for charge:
    minimum data exchange during FFTs selected (reduces bandwidth)


 total amount of memory used by VASP on root node    93273. kBytes
========================================================================

   base      :      30000. kBytes
   nonl-proj :       2301. kBytes
   fftplans  :      20656. kBytes
   grid      :      36747. kBytes
   one-center:         15. kBytes
   wavefun   :       3554. kBytes
 
 Broyden mixing: mesh for mixing (old mesh)
   NGX = 27   NGY = 27   NGZ = 27
  (NGX  = 84   NGY  = 84   NGZ  = 84)
  gives a total of  19683 points

 initial charge density was supplied:
 charge density of overlapping atoms calculated
 number of electron      32.0000000 magnetization 
 keeping initial charge density in first step


--------------------------------------------------------------------------------------------------------


 Maximum index for augmentation-charges         1797 (set IRDMAX)


--------------------------------------------------------------------------------------------------------


 First call to EWALD:  gamma=   0.222
 Maximum number of real-space cells 3x 3x 3
 Maximum number of reciprocal cells 3x 3x 3

    FEWALD:  cpu time    0.00: real time    0.00


----------------------------------------- Iteration    1(   1)  ---------------------------------------


    POTLOK:  cpu time    1.02: real time    1.02
    SETDIJ:  cpu time    0.01: real time    0.01
     EDDAV:  cpu time    1.31: real time    1.31
       DOS:  cpu time    0.00: real time    0.00
    --------------------------------------------
      LOOP:  cpu time    2.34: real time    2.38

 eigenvalue-minimisations  :    56
 total energy-change (2. order) : 0.2804953E+03  (-0.1147422E+04)
 number of electron      32.0000000 magnetization 
 augmentation part       32.0000000 magnetization 

 Free energy of the ion-electron system (eV)
  ---------------------------------------------------
  alpha Z        PSCENC =         7.54128431
  Ewald energy   TEWEN  =       639.40154998
  -1/2 Hartree   DENC   =     -3017.86676480
  -exchange  EXHF       =         0.00000000
  -V(xc)+E(xc)   XCENC  =       162.93168310
  PAW double counting   =      1763.54531609    -1785.13761353
  entropy T*S    EENTRO =        -0.00139005
  eigenvalues    EBANDS =      -274.77850217
  atomic energy  EATOM  =      2784.85974696
  ---------------------------------------------------
  free energy    TOTEN  =       280.49530990 eV

  energy without entropy =      280.49669995  energy(sigma->0) =      280.49600493


--------------------------------------------------------------------------------------------------------




----------------------------------------- Iteration    1(   2)  ---------------------------------------


     EDDAV:  cpu time    1.59: real time    1.59
       DOS:  cpu time    0.00: real time    0.00
    --------------------------------------------
      LOOP:  cpu time    1.59: real time    1.60

 eigenvalue-minimisations  :    72
 total energy-change (2. order) :-0.2576101E+03  (-0.2497246E+03)
 number of electron      32.0000000 magnetization 
 augmentation part       32.0000000 magnetization 

 Free energy of the ion-electron system (eV)
  ---------------------------------------------------
  alpha Z        PSCENC =         7.54128431
  Ewald energy   TEWEN  =       639.40154998
  -1/2 Hartree   DENC   =     -3017.86676480
  -exchange  EXHF       =         0.00000000
  -V(xc)+E(xc)   XCENC  =       162.93168310
  PAW double counting   =      1763.54531609    -1785.13761353
  entropy T*S    EENTRO =         0.00000000
  eigenvalues    EBANDS =      -532.38997565
  atomic energy  EATOM  =      2784.85974696
  ---------------------------------------------------
  free energy    TOTEN  =        22.88522646 eV

  energy without entropy =       22.88522646  energy(sigma->0) =       22.88522646


--------------------------------------------------------------------------------------------------------




----------------------------------------- Iteration    1(   3)  ---------------------------------------


     EDDAV:  cpu time    1.08: real time    1.08
       DOS:  cpu time    0.00: real time    0.00
    --------------------------------------------
      LOOP:  cpu time    1.08: real time    1.10

 eigenvalue-minimisations  :    44
 total energy-change (2. order) :-0.4929010E+02  (-0.4898769E+02)
 number of electron      32.0000000 magnetization 
 augmentation part       32.0000000 magnetization 

 Free energy of the ion-electron system (eV)
  ---------------------------------------------------
  alpha Z        PSCENC =         7.54128431
  Ewald energy   TEWEN  =       639.40154998
  -1/2 Hartree   DENC   =     -3017.86676480
  -exchange  EXHF       =         0.00000000
  -V(xc)+E(xc)   XCENC  =       162.93168310
  PAW double counting   =      1763.54531609    -1785.13761353
  entropy T*S    EENTRO =         0.00000000
  eigenvalues    EBANDS =      -581.68007653
  atomic energy  EATOM  =      2784.85974696
  ---------------------------------------------------
  free energy    TOTEN  =       -26.40487441 eV

  energy without entropy =      -26.40487441  energy(sigma->0) =      -26.40487441


--------------------------------------------------------------------------------------------------------




----------------------------------------- Iteration    1(   4)  ---------------------------------------


     EDDAV:  cpu time    1.16: real time    1.16
       DOS:  cpu time    0.00: real time    0.00
    --------------------------------------------
      LOOP:  cpu time    1.16: real time    1.18

 eigenvalue-minimisations  :    48
 total energy-change (2. order) :-0.1152086E+01  (-0.1151609E+01)
 number of electron      32.0000000 magnetization 
 augmentation part       32.0000000 magnetization 

 Free energy of the ion-electron system (eV)
  ---------------------------------------------------
  alpha Z        PSCENC =         7.54128431
  Ewald energy   TEWEN  =       639.40154998
  -1/2 Hartree   DENC   =     -3017.86676480
  -exchange  EXHF       =         0.00000000
  -V(xc)+E(xc)   XCENC  =       162.93168310
  PAW double counting   =      1763.54531609    -1785.13761353
  entropy T*S    EENTRO =         0.00000000
  eigenvalues    EBANDS =      -582.83216237
  atomic energy  EATOM  =      2784.85974696
  ---------------------------------------------------
  free energy    TOTEN  =       -27.55696025 eV

  energy without entropy =      -27.55696025  energy(sigma->0) =      -27.55696025


--------------------------------------------------------------------------------------------------------




----------------------------------------- Iteration    1(   5)  ---------------------------------------


     EDDAV:  cpu time    1.15: real time    1.16
       DOS:  cpu time    0.00: real time    0.00
    CHARGE:  cpu time    0.19: real time    0.19
    MIXING:  cpu time    0.03: real time    0.03
    --------------------------------------------
      LOOP:  cpu time    1.38: real time    1.82

 eigenvalue-minimisations  :    48
 total energy-change (2. order) :-0.3112316E-01  (-0.3103862E-01)
 number of electron      31.9999780 magnetization 
 augmentation part        5.4828089 magnetization 

 Broyden mixing:
  rms(total) = 0.89927E+00    rms(broyden)= 0.89579E+00
  rms(prec ) = 0.12173E+01
  weight for this iteration     100.00

 Free energy of the ion-electron system (eV)
  ---------------------------------------------------
  alpha Z        PSCENC =         7.54128431
  Ewald energy   TEWEN  =       639.40154998
  -1/2 Hartree   DENC   =     -3017.86676480
  -exchange  EXHF       =         0.00000000
  -V(xc)+E(xc)   XCENC  =       162.93168310
  PAW double counting   =      1763.54531609    -1785.13761353
  entropy T*S    EENTRO =         0.00000000
  eigenvalues    EBANDS =      -582.86328553
  atomic energy  EATOM  =      2784.85974696
  ---------------------------------------------------
  free energy    TOTEN  =       -27.58808341 eV

  energy without entropy =      -27.58808341  energy(sigma->0) =      -27.58808341


--------------------------------------------------------------------------------------------------------




----------------------------------------- Iteration    1(   6)  ---------------------------------------


    POTLOK:  cpu time    0.95: real time    0.95
    SETDIJ:  cpu time    0.01: real time    0.01
     EDDAV:  cpu time    1.08: real time    1.08
       DOS:  cpu time    0.00: real time    0.00
    CHARGE:  cpu time    0.18: real time    0.18
    MIXING:  cpu time    0.03: real time    0.03
    --------------------------------------------
      LOOP:  cpu time    2.26: real time    2.41

 eigenvalue-minimisations  :    44
 total energy-change (2. order) : 0.1710390E+01  (-0.8389544E+00)
 number of electron      31.9999794 magnetization 
 augmentation part        5.1792698 magnetization 

 Broyden mixing:
  rms(total) = 0.37326E+00    rms(broyden)= 0.37222E+00
  rms(prec ) = 0.41964E+00
  weight for this iteration     100.00

 eigenvalues of (default mixing * dielectric matrix)
  average eigenvalue GAMMA=   1.0568
  1.0568

 Free energy of the ion-electron system (eV)
  ---------------------------------------------------
  alpha Z        PSCENC =         7.54128431
  Ewald energy   TEWEN  =       639.40154998
  -1/2 Hartree   DENC   =     -3045.01962622
  -exchange  EXHF       =         0.00000000
  -V(xc)+E(xc)   XCENC  =       165.08059189
  PAW double counting   =      1895.10937778    -1917.95588044
  entropy T*S    EENTRO =         0.00000000
  eigenvalues    EBANDS =      -554.89473773
  atomic energy  EATOM  =      2784.85974696
  ---------------------------------------------------
  free energy    TOTEN  =       -25.87769346 eV

  energy without entropy =      -25.87769346  energy(sigma->0) =      -25.87769346


--------------------------------------------------------------------------------------------------------




----------------------------------------- Iteration    1(   7)  ---------------------------------------


    POTLOK:  cpu time    0.96: real time    0.96
    SETDIJ:  cpu time    0.01: real time    0.01
     EDDAV:  cpu time    1.07: real time    1.08
       DOS:  cpu time    0.00: real time    0.00
    CHARGE:  cpu time    0.19: real time    0.19
    MIXING:  cpu time    0.03: real time    0.03
    --------------------------------------------
      LOOP:  cpu time    2.27: real time    3.44

 eigenvalue-minimisations  :    44
 total energy-change (2. order) : 0.1960296E-01  (-0.3448769E-01)
 number of electron      31.9999795 magnetization 
 augmentation part        5.1787799 magnetization 

 Broyden mixing:
  rms(total) = 0.20721E+00    rms(broyden)= 0.20717E+00
  rms(prec ) = 0.23364E+00
  weight for this iteration     100.00

 eigenvalues of (default mixing * dielectric matrix)
  average eigenvalue GAMMA=   1.6318
  1.0579  2.2058

 Free energy of the ion-electron system (eV)
  ---------------------------------------------------
  alpha Z        PSCENC =         7.54128431
  Ewald energy   TEWEN  =       639.40154998
  -1/2 Hartree   DENC   =     -3046.30597630
  -exchange  EXHF       =         0.00000000
  -V(xc)+E(xc)   XCENC  =       165.24313777
  PAW double counting   =      1940.62362244    -1963.05088020
  entropy T*S    EENTRO =         0.00000000
  eigenvalues    EBANDS =      -554.17057547
  atomic energy  EATOM  =      2784.85974696
  ---------------------------------------------------
  free energy    TOTEN  =       -25.85809050 eV

  energy without entropy =      -25.85809050  energy(sigma->0) =      -25.85809050


--------------------------------------------------------------------------------------------------------




----------------------------------------- Iteration    1(   8)  ---------------------------------------


    POTLOK:  cpu time    0.98: real time    0.99
    SETDIJ:  cpu time    0.01: real time    0.01
     EDDAV:  cpu time    1.31: real time    1.31
       DOS:  cpu time    0.00: real time    0.00
    CHARGE:  cpu time    0.19: real time    0.19
    MIXING:  cpu time    0.03: real time    0.03
    --------------------------------------------
      LOOP:  cpu time    2.53: real time    2.54

 eigenvalue-minimisations  :    56
 total energy-change (2. order) :-0.1705495E-01  (-0.4611844E-02)
 number of electron      31.9999795 magnetization 
 augmentation part        5.1865395 magnetization 

 Broyden mixing:
  rms(total) = 0.25459E-01    rms(broyden)= 0.25448E-01
  rms(prec ) = 0.33865E-01
  weight for this iteration     100.00

 eigenvalues of (default mixing * dielectric matrix)
  average eigenvalue GAMMA=   1.5268
  2.4346  1.0730  1.0730

 Free energy of the ion-electron system (eV)
  ---------------------------------------------------
  alpha Z        PSCENC =         7.54128431
  Ewald energy   TEWEN  =       639.40154998
  -1/2 Hartree   DENC   =     -3047.39996054
  -exchange  EXHF       =         0.00000000
  -V(xc)+E(xc)   XCENC  =       165.36962184
  PAW double counting   =      1994.29552461    -2016.32071469
  entropy T*S    EENTRO =         0.00000000
  eigenvalues    EBANDS =      -553.62219792
  atomic energy  EATOM  =      2784.85974696
  ---------------------------------------------------
  free energy    TOTEN  =       -25.87514545 eV

  energy without entropy =      -25.87514545  energy(sigma->0) =      -25.87514545


--------------------------------------------------------------------------------------------------------




----------------------------------------- Iteration    1(   9)  ---------------------------------------


    POTLOK:  cpu time    0.98: real time    0.98
    SETDIJ:  cpu time    0.01: real time    0.01
     EDDAV:  cpu time    1.01: real time    1.01
       DOS:  cpu time    0.00: real time    0.00
    CHARGE:  cpu time    0.18: real time    0.19
    MIXING:  cpu time    0.03: real time    0.03
    --------------------------------------------
      LOOP:  cpu time    2.23: real time    2.24

 eigenvalue-minimisations  :    40
 total energy-change (2. order) :-0.1180603E-02  (-0.8223105E-03)
 number of electron      31.9999795 magnetization 
 augmentation part        5.1798637 magnetization 

 Broyden mixing:
  rms(total) = 0.10990E-01    rms(broyden)= 0.10977E-01
  rms(prec ) = 0.13441E-01
  weight for this iteration     100.00

 eigenvalues of (default mixing * dielectric matrix)
  average eigenvalue GAMMA=   1.6858
  0.9888  0.9888  2.3829  2.3829

 Free energy of the ion-electron system (eV)
  ---------------------------------------------------
  alpha Z        PSCENC =         7.54128431
  Ewald energy   TEWEN  =       639.40154998
  -1/2 Hartree   DENC   =     -3048.31452017
  -exchange  EXHF       =         0.00000000
  -V(xc)+E(xc)   XCENC  =       165.44077681
  PAW double counting   =      2001.53000693    -2023.54085641
  entropy T*S    EENTRO =         0.00000000
  eigenvalues    EBANDS =      -552.79431446
  atomic energy  EATOM  =      2784.85974696
  ---------------------------------------------------
  free energy    TOTEN  =       -25.87632605 eV

  energy without entropy =      -25.87632605  energy(sigma->0) =      -25.87632605


--------------------------------------------------------------------------------------------------------




----------------------------------------- Iteration    1(  10)  ---------------------------------------


    POTLOK:  cpu time    0.99: real time    1.00
    SETDIJ:  cpu time    0.01: real time    0.01
     EDDAV:  cpu time    1.09: real time    1.09
       DOS:  cpu time    0.00: real time    0.00
    CHARGE:  cpu time    0.18: real time    0.19
    MIXING:  cpu time    0.03: real time    0.03
    --------------------------------------------
      LOOP:  cpu time    2.32: real time    2.33

 eigenvalue-minimisations  :    44
 total energy-change (2. order) :-0.2894579E-03  (-0.5068563E-04)
 number of electron      31.9999795 magnetization 
 augmentation part        5.1815706 magnetization 

 Broyden mixing:
  rms(total) = 0.21440E-02    rms(broyden)= 0.21380E-02
  rms(prec ) = 0.29602E-02
  weight for this iteration     100.00

 eigenvalues of (default mixing * dielectric matrix)
  average eigenvalue GAMMA=   1.5710
  2.5882  2.1371  1.0039  1.0039  1.1218

 Free energy of the ion-electron system (eV)
  ---------------------------------------------------
  alpha Z        PSCENC =         7.54128431
  Ewald energy   TEWEN  =       639.40154998
  -1/2 Hartree   DENC   =     -3048.18088169
  -exchange  EXHF       =         0.00000000
  -V(xc)+E(xc)   XCENC  =       165.43084699
  PAW double counting   =      2000.89642004    -2022.89108795
  entropy T*S    EENTRO =         0.00000000
  eigenvalues    EBANDS =      -552.93449415
  atomic energy  EATOM  =      2784.85974696
  ---------------------------------------------------
  free energy    TOTEN  =       -25.87661551 eV

  energy without entropy =      -25.87661551  energy(sigma->0) =      -25.87661551


--------------------------------------------------------------------------------------------------------




----------------------------------------- Iteration    1(  11)  ---------------------------------------


    POTLOK:  cpu time    0.99: real time    0.99
    SETDIJ:  cpu time    0.01: real time    0.01
     EDDAV:  cpu time    0.89: real time    0.89
       DOS:  cpu time    0.00: real time    0.00
    --------------------------------------------
      LOOP:  cpu time    1.89: real time    1.91

 eigenvalue-minimisations  :    32
 total energy-change (2. order) :-0.9101453E-04  (-0.5652569E-05)
 number of electron      31.9999795 magnetization 
 augmentation part        5.1815706 magnetization 

 Free energy of the ion-electron system (eV)
  ---------------------------------------------------
  alpha Z        PSCENC =         7.54128431
  Ewald energy   TEWEN  =       639.40154998
  -1/2 Hartree   DENC   =     -3048.19123456
  -exchange  EXHF       =         0.00000000
  -V(xc)+E(xc)   XCENC  =       165.43307485
  PAW double counting   =      2001.42308211    -2023.41943782
  entropy T*S    EENTRO =         0.00000000
  eigenvalues    EBANDS =      -552.92477237
  atomic energy  EATOM  =      2784.85974696
  ---------------------------------------------------
  free energy    TOTEN  =       -25.87670652 eV

  energy without entropy =      -25.87670652  energy(sigma->0) =      -25.87670652


--------------------------------------------------------------------------------------------------------




 average (electrostatic) potential at core
  the test charge radii are     0.6991  0.7167
  (the norm of the test charge is              1.0000)
       1 -66.2168       2 -86.8977       3 -86.8977       4 -86.8977       5 -86.8977
 
 
 
 E-fermi :  -8.7394     XC(G=0):  -1.8387     alpha+bet : -0.7008


 k-point   1 :       0.0000    0.0000    0.0000
  band No.  band energies     occupation 
      1     -34.2203      2.00000
      2     -31.2038      2.00000
      3     -31.2038      2.00000
      4     -31.2038      2.00000
      5     -17.5637      2.00000
      6     -15.2371      2.00000
      7     -15.2371      2.00000
      8     -15.2371      2.00000
      9     -11.5411      2.00000
     10     -11.5411      2.00000
     11     -11.0138      2.00000
     12     -11.0138      2.00000
     13     -11.0138      2.00000
     14      -9.7440      2.00000
     15      -9.7440      2.00000
     16      -9.7440      2.00000
     17      -0.3096      0.00000
     18       1.9924      0.00000
     19       1.9925      0.00000
     20       1.9925      0.00000


--------------------------------------------------------------------------------------------------------


 soft charge-density along one line, spin component           1
         0         1         2         3         4         5         6         7         8         9
 total charge-density along one line
 
 pseudopotential strength for first ion, spin component:           1
 10.675   0.034   0.000   0.000   0.000   0.000   0.000   0.000
  0.034  -0.001   0.000   0.000   0.000   0.000   0.000   0.000
  0.000   0.000  -4.789   0.000   0.000  -0.006   0.000   0.000
  0.000   0.000   0.000  -4.789   0.000   0.000  -0.006   0.000
  0.000   0.000   0.000   0.000  -4.789   0.000   0.000  -0.006
  0.000   0.000  -0.006   0.000   0.000  -0.783   0.000   0.000
  0.000   0.000   0.000  -0.006   0.000   0.000  -0.783   0.000
  0.000   0.000   0.000   0.000  -0.006   0.000   0.000  -0.783
 total augmentation occupancy for first ion, spin component:           1
  1.356  -0.892   0.000   0.000   0.000   0.000   0.000   0.000
 -0.892   1.524   0.000   0.000   0.000   0.000   0.000   0.000
  0.000   0.000   0.966   0.000   0.000   0.185   0.000   0.000
  0.000   0.000   0.000   0.966   0.000   0.000   0.185   0.000
  0.000   0.000   0.000   0.000   0.966   0.000   0.000   0.185
  0.000   0.000   0.185   0.000   0.000   0.055   0.000   0.000
  0.000   0.000   0.000   0.185   0.000   0.000   0.055   0.000
  0.000   0.000   0.000   0.000   0.185   0.000   0.000   0.055


------------------------ aborting loop because EDIFF is reached ----------------------------------------


    CHARGE:  cpu time    0.19: real time    0.20
    FORLOC:  cpu time    0.10: real time    0.11
    FORNL :  cpu time    0.21: real time    0.21
    STRESS:  cpu time    0.49: real time    0.49
    FORHAR:  cpu time    0.32: real time    0.33
    MIXING:  cpu time    0.04: real time    0.04

  FORCE on cell =-STRESS in cart. coord.  units (eV):
  Direction    XX          YY          ZZ          XY          YZ          ZX
  --------------------------------------------------------------------------------------
  Alpha Z     7.54128     7.54128     7.54128
  Ewald     213.13355   213.13355   213.13355     0.00000     0.00000     0.00000
  Hartree  1016.06665  1016.06665  1016.06665     0.00000     0.00000     0.00000
  E(xc)    -174.77551  -174.77551  -174.77551     0.00000     0.00000     0.00000
  Local   -1681.74988 -1681.74988 -1681.74988     0.00000     0.00000     0.00000
  n-local  -162.21051  -162.21051  -162.21051     0.00000     0.00000     0.00000
  augment    71.16412    71.16412    71.16412     0.00000     0.00000     0.00000
  Kinetic   711.04084   711.04086   711.04087     0.00002     0.00000     0.00001
  Fock        0.00000     0.00000     0.00000     0.00000     0.00000     0.00000
  -------------------------------------------------------------------------------------
  Total       0.21055     0.21055     0.21055     0.00000     0.00000     0.00000
  in kB       0.65887     0.65887     0.65887     0.00000     0.00000     0.00000
  external pressure =        0.66 kB  Pullay stress =        0.00 kB


 VOLUME and BASIS-vectors are now :
 -----------------------------------------------------------------------------
  energy-cutoff  :      450.00
  volume of cell :      512.00
      direct lattice vectors                 reciprocal lattice vectors
     8.000000000  0.000000000  0.000000000     0.125000000  0.000000000  0.000000000
     0.000000000  8.000000000  0.000000000     0.000000000  0.125000000  0.000000000
     0.000000000  0.000000000  8.000000000     0.000000000  0.000000000  0.125000000

  length of vectors
     8.000000000  8.000000000  8.000000000     0.125000000  0.125000000  0.125000000


 FORCES acting on ions
    electron-ion (+dipol)            ewald-force                    non-local-force                 convergence-correction
 -----------------------------------------------------------------------------------------------
   -.158E-13 0.567E-14 0.148E-13   -.164E-12 -.633E-13 -.350E-13   0.635E-21 0.212E-21 -.265E-21   -.233E-13 -.265E-13 0.922E-13
   -.290E+03 -.290E+03 -.290E+03   0.324E+03 0.324E+03 0.324E+03   -.341E+02 -.341E+02 -.341E+02   -.744E-02 -.744E-02 -.744E-02
   0.290E+03 0.290E+03 -.290E+03   -.324E+03 -.324E+03 0.324E+03   0.341E+02 0.341E+02 -.341E+02   0.744E-02 0.744E-02 -.744E-02
   0.290E+03 -.290E+03 0.290E+03   -.324E+03 0.324E+03 -.324E+03   0.341E+02 -.341E+02 0.341E+02   0.744E-02 -.744E-02 0.744E-02
   -.290E+03 0.290E+03 0.290E+03   0.324E+03 -.324E+03 -.324E+03   -.341E+02 0.341E+02 0.341E+02   -.744E-02 0.744E-02 0.744E-02
 -----------------------------------------------------------------------------------------------
   -.979E-06 -.979E-06 -.309E-08   0.568E-13 0.000E+00 0.000E+00   0.711E-14 0.142E-13 0.142E-13   0.615E-13 0.533E-13 0.361E-12
 
 
 POSITION                                       TOTAL-FORCE (eV/Angst)
 -----------------------------------------------------------------------------------
      0.00000      0.00000      0.00000         0.000000      0.000000      0.000000
      0.76744      0.76744      0.76744         0.479999      0.479999      0.479999
      7.23256      7.23256      0.76744        -0.479999     -0.479999      0.479999
      7.23256      0.76744      7.23256        -0.479999      0.479999     -0.479999
      0.76744      7.23256      7.23256         0.479999     -0.479999     -0.479999
 -----------------------------------------------------------------------------------
    total drift:                               -0.000001     -0.000001      0.000000


--------------------------------------------------------------------------------------------------------



  FREE ENERGIE OF THE ION-ELECTRON SYSTEM (eV)
  ---------------------------------------------------
  free  energy   TOTEN  =       -25.876707 eV

  energy  without entropy=      -25.876707  energy(sigma->0) =      -25.876707
 


--------------------------------------------------------------------------------------------------------


    POTLOK:  cpu time    1.05: real time    1.05


--------------------------------------------------------------------------------------------------------




--------------------------------------------------------------------------------------------------------


    WAVPRE:  cpu time    0.21: real time    0.21
    FEWALD:  cpu time    0.00: real time    0.00
    ORTHCH:  cpu time    0.05: real time    0.05
     LOOP+:  cpu time   24.88: real time   27.71


----------------------------------------- Iteration    2(   1)  ---------------------------------------


    POTLOK:  cpu time    1.08: real time    1.08
    SETDIJ:  cpu time    0.01: real time    0.01
     EDDAV:  cpu time    1.38: real time    1.38
       DOS:  cpu time    0.00: real time    0.00
    CHARGE:  cpu time    0.22: real time    0.22
    MIXING:  cpu time    0.03: real time    0.03
    --------------------------------------------
      LOOP:  cpu time    2.73: real time    2.73

 eigenvalue-minimisations  :    48
 total energy-change (2. order) : 0.1094536E+00  (-0.4804079E+01)
 number of electron      31.9999977 magnetization 
 augmentation part        5.1161659 magnetization 

 Broyden mixing:
  rms(total) = 0.18320E+00    rms(broyden)= 0.18124E+00
  rms(prec ) = 0.21302E+00
  weight for this iteration     100.00

 Free energy of the ion-electron system (eV)
  ---------------------------------------------------
  alpha Z        PSCENC =         7.54128431
  Ewald energy   TEWEN  =       552.09855799
  -1/2 Hartree   DENC   =     -2972.87708928
  -exchange  EXHF       =         0.00000000
  -V(xc)+E(xc)   XCENC  =       164.89023709
  PAW double counting   =      2001.17768972    -2023.18048638
  entropy T*S    EENTRO =         0.00000000
  eigenvalues    EBANDS =      -540.27710235
  atomic energy  EATOM  =      2784.85974696
  ---------------------------------------------------
  free energy    TOTEN  =       -25.76716193 eV

  energy without entropy =      -25.76716193  energy(sigma->0) =      -25.76716193


--------------------------------------------------------------------------------------------------------




----------------------------------------- Iteration    2(   2)  ---------------------------------------


    POTLOK:  cpu time    1.03: real time    1.03
    SETDIJ:  cpu time    0.01: real time    0.01
     EDDAV:  cpu time    1.40: real time    1.40
       DOS:  cpu time    0.00: real time    0.00
    CHARGE:  cpu time    0.21: real time    0.21
    MIXING:  cpu time    0.03: real time    0.03
    --------------------------------------------
      LOOP:  cpu time    2.69: real time    2.69

 eigenvalue-minimisations  :    48
 total energy-change (2. order) :-0.7667832E-01  (-0.1234690E+00)
 number of electron      31.9999974 magnetization 
 augmentation part        5.1375607 magnetization 

 Broyden mixing:
  rms(total) = 0.94648E-01    rms(broyden)= 0.94332E-01
  rms(prec ) = 0.11379E+00
  weight for this iteration     100.00

 eigenvalues of (default mixing * dielectric matrix)
  average eigenvalue GAMMA=   0.8848
  0.8848

 Free energy of the ion-electron system (eV)
  ---------------------------------------------------
  alpha Z        PSCENC =         7.54128431
  Ewald energy   TEWEN  =       552.09855799
  -1/2 Hartree   DENC   =     -2966.56996065
  -exchange  EXHF       =         0.00000000
  -V(xc)+E(xc)   XCENC  =       164.55116993
  PAW double counting   =      1985.40943310    -2007.34163275
  entropy T*S    EENTRO =         0.00000000
  eigenvalues    EBANDS =      -546.39243915
  atomic energy  EATOM  =      2784.85974696
  ---------------------------------------------------
  free energy    TOTEN  =       -25.84384025 eV

  energy without entropy =      -25.84384025  energy(sigma->0) =      -25.84384025


--------------------------------------------------------------------------------------------------------




----------------------------------------- Iteration    2(   3)  ---------------------------------------


    POTLOK:  cpu time    1.02: real time    1.02
    SETDIJ:  cpu time    0.01: real time    0.01
     EDDAV:  cpu time    1.42: real time    1.42
       DOS:  cpu time    0.00: real time    0.00
    CHARGE:  cpu time    0.22: real time    0.22
    MIXING:  cpu time    0.04: real time    0.04
    --------------------------------------------
      LOOP:  cpu time    2.71: real time    2.72

 eigenvalue-minimisations  :    48
 total energy-change (2. order) : 0.8339433E-02  (-0.1612526E-02)
 number of electron      31.9999974 magnetization 
 augmentation part        5.1299785 magnetization 

 Broyden mixing:
  rms(total) = 0.57556E-01    rms(broyden)= 0.57519E-01
  rms(prec ) = 0.66085E-01
  weight for this iteration     100.00

 eigenvalues of (default mixing * dielectric matrix)
  average eigenvalue GAMMA=   1.5944
  0.9512  2.2377

 Free energy of the ion-electron system (eV)
  ---------------------------------------------------
  alpha Z        PSCENC =         7.54128431
  Ewald energy   TEWEN  =       552.09855799
  -1/2 Hartree   DENC   =     -2966.37030083
  -exchange  EXHF       =         0.00000000
  -V(xc)+E(xc)   XCENC  =       164.58191196
  PAW double counting   =      1982.01741480    -2003.92649186
  entropy T*S    EENTRO =         0.00000000
  eigenvalues    EBANDS =      -546.63762416
  atomic energy  EATOM  =      2784.85974696
  ---------------------------------------------------
  free energy    TOTEN  =       -25.83550082 eV

  energy without entropy =      -25.83550082  energy(sigma->0) =      -25.83550082


--------------------------------------------------------------------------------------------------------




----------------------------------------- Iteration    2(   4)  ---------------------------------------


    POTLOK:  cpu time    1.00: real time    1.00
    SETDIJ:  cpu time    0.01: real time    0.01
     EDDAV:  cpu time    1.39: real time    1.39
       DOS:  cpu time    0.00: real time    0.00
    CHARGE:  cpu time    0.21: real time    0.21
    MIXING:  cpu time    0.04: real time    0.04
    --------------------------------------------
      LOOP:  cpu time    2.66: real time    3.65

 eigenvalue-minimisations  :    48
 total energy-change (2. order) :-0.5549789E-02  (-0.2644999E-02)
 number of electron      31.9999974 magnetization 
 augmentation part        5.1200212 magnetization 

 Broyden mixing:
  rms(total) = 0.16902E-01    rms(broyden)= 0.16855E-01
  rms(prec ) = 0.24924E-01
  weight for this iteration     100.00

 eigenvalues of (default mixing * dielectric matrix)
  average eigenvalue GAMMA=   1.5530
  1.0776  1.9125  1.6689

 Free energy of the ion-electron system (eV)
  ---------------------------------------------------
  alpha Z        PSCENC =         7.54128431
  Ewald energy   TEWEN  =       552.09855799
  -1/2 Hartree   DENC   =     -2965.76160862
  -exchange  EXHF       =         0.00000000
  -V(xc)+E(xc)   XCENC  =       164.58909923
  PAW double counting   =      1974.47776201    -1996.28291251
  entropy T*S    EENTRO =         0.00000000
  eigenvalues    EBANDS =      -547.36297998
  atomic energy  EATOM  =      2784.85974696
  ---------------------------------------------------
  free energy    TOTEN  =       -25.84105061 eV

  energy without entropy =      -25.84105061  energy(sigma->0) =      -25.84105061


--------------------------------------------------------------------------------------------------------




----------------------------------------- Iteration    2(   5)  ---------------------------------------


    POTLOK:  cpu time    1.05: real time    1.05
    SETDIJ:  cpu time    0.01: real time    0.01
     EDDAV:  cpu time    1.31: real time    1.31
       DOS:  cpu time    0.00: real time    0.00
    CHARGE:  cpu time    0.22: real time    0.22
    MIXING:  cpu time    0.04: real time    0.04
    --------------------------------------------
      LOOP:  cpu time    2.63: real time    3.70

 eigenvalue-minimisations  :    48
 total energy-change (2. order) :-0.3828469E-03  (-0.1660225E-02)
 number of electron      31.9999975 magnetization 
 augmentation part        5.1323758 magnetization 

 Broyden mixing:
  rms(total) = 0.15082E-01    rms(broyden)= 0.15051E-01
  rms(prec ) = 0.21513E-01
  weight for this iteration     100.00

 eigenvalues of (default mixing * dielectric matrix)
  average eigenvalue GAMMA=   1.2927
  2.1699  0.9937  1.0036  1.0036

 Free energy of the ion-electron system (eV)
  ---------------------------------------------------
  alpha Z        PSCENC =         7.54128431
  Ewald energy   TEWEN  =       552.09855799
  -1/2 Hartree   DENC   =     -2965.28270262
  -exchange  EXHF       =         0.00000000
  -V(xc)+E(xc)   XCENC  =       164.53581401
  PAW double counting   =      1971.92225401    -1993.66744917
  entropy T*S    EENTRO =         0.00000000
  eigenvalues    EBANDS =      -547.84893894
  atomic energy  EATOM  =      2784.85974696
  ---------------------------------------------------
  free energy    TOTEN  =       -25.84143346 eV

  energy without entropy =      -25.84143346  energy(sigma->0) =      -25.84143346


--------------------------------------------------------------------------------------------------------




----------------------------------------- Iteration    2(   6)  ---------------------------------------


    POTLOK:  cpu time    0.86: real time    0.86
    SETDIJ:  cpu time    0.01: real time    0.01
     EDDAV:  cpu time    1.24: real time    1.24
       DOS:  cpu time    0.00: real time    0.00
    CHARGE:  cpu time    0.19: real time    0.19
    MIXING:  cpu time    0.04: real time    0.04
    --------------------------------------------
      LOOP:  cpu time    2.34: real time    2.35

 eigenvalue-minimisations  :    48
 total energy-change (2. order) : 0.5064346E-03  (-0.2417586E-03)
 number of electron      31.9999975 magnetization 
 augmentation part        5.1277166 magnetization 

 Broyden mixing:
  rms(total) = 0.37572E-02    rms(broyden)= 0.37497E-02
  rms(prec ) = 0.49925E-02
  weight for this iteration     100.00

 eigenvalues of (default mixing * dielectric matrix)
  average eigenvalue GAMMA=   1.4019
  2.4799  1.3719  1.0794  1.0391  1.0391

 Free energy of the ion-electron system (eV)
  ---------------------------------------------------
  alpha Z        PSCENC =         7.54128431
  Ewald energy   TEWEN  =       552.09855799
  -1/2 Hartree   DENC   =     -2965.50144041
  -exchange  EXHF       =         0.00000000
  -V(xc)+E(xc)   XCENC  =       164.56079599
  PAW double counting   =      1972.42511093    -1994.19304883
  entropy T*S    EENTRO =         0.00000000
  eigenvalues    EBANDS =      -547.63193396
  atomic energy  EATOM  =      2784.85974696
  ---------------------------------------------------
  free energy    TOTEN  =       -25.84092702 eV

  energy without entropy =      -25.84092702  energy(sigma->0) =      -25.84092702


--------------------------------------------------------------------------------------------------------




----------------------------------------- Iteration    2(   7)  ---------------------------------------


    POTLOK:  cpu time    0.85: real time    0.85
    SETDIJ:  cpu time    0.01: real time    0.01
     EDDAV:  cpu time    0.91: real time    0.91
       DOS:  cpu time    0.00: real time    0.00
    --------------------------------------------
      LOOP:  cpu time    1.77: real time    1.84

 eigenvalue-minimisations  :    32
 total energy-change (2. order) :-0.9344888E-04  (-0.5003042E-04)
 number of electron      31.9999975 magnetization 
 augmentation part        5.1277166 magnetization 

 Free energy of the ion-electron system (eV)
  ---------------------------------------------------
  alpha Z        PSCENC =         7.54128431
  Ewald energy   TEWEN  =       552.09855799
  -1/2 Hartree   DENC   =     -2965.48534506
  -exchange  EXHF       =         0.00000000
  -V(xc)+E(xc)   XCENC  =       164.56384664
  PAW double counting   =      1972.13136271    -1993.89990925
  entropy T*S    EENTRO =         0.00000000
  eigenvalues    EBANDS =      -547.65056479
  atomic energy  EATOM  =      2784.85974696
  ---------------------------------------------------
  free energy    TOTEN  =       -25.84102047 eV

  energy without entropy =      -25.84102047  energy(sigma->0) =      -25.84102047


--------------------------------------------------------------------------------------------------------




 average (electrostatic) potential at core
  the test charge radii are     0.6991  0.7167
  (the norm of the test charge is              1.0000)
       1 -66.3130       2 -86.8663       3 -86.8663       4 -86.8663       5 -86.8663
 
 
 
 E-fermi :  -8.7395     XC(G=0):  -1.7131     alpha+bet : -0.7008


 k-point   1 :       0.0000    0.0000    0.0000
  band No.  band energies     occupation 
      1     -33.5531      2.00000
      2     -30.9202      2.00000
      3     -30.9202      2.00000
      4     -30.9202      2.00000
      5     -17.6105      2.00000
      6     -14.9811      2.00000
      7     -14.9811      2.00000
      8     -14.9811      2.00000
      9     -11.3710      2.00000
     10     -11.3710      2.00000
     11     -10.9400      2.00000
     12     -10.9400      2.00000
     13     -10.9400      2.00000
     14      -9.7985      2.00000
     15      -9.7985      2.00000
     16      -9.7985      2.00000
     17      -0.3300      0.00000
     18       1.8757      0.00000
     19       1.8757      0.00000
     20       1.8757      0.00000


--------------------------------------------------------------------------------------------------------


 soft charge-density along one line, spin component           1
         0         1         2         3         4         5         6         7         8         9
 total charge-density along one line
 
 pseudopotential strength for first ion, spin component:           1
 10.673   0.034   0.000   0.000   0.000   0.000   0.000   0.000
  0.034  -0.001   0.000   0.000   0.000   0.000   0.000   0.000
  0.000   0.000  -4.798   0.000   0.000  -0.002   0.000   0.000
  0.000   0.000   0.000  -4.798   0.000   0.000  -0.002   0.000
  0.000   0.000   0.000   0.000  -4.798   0.000   0.000  -0.002
  0.000   0.000  -0.002   0.000   0.000  -0.783   0.000   0.000
  0.000   0.000   0.000  -0.002   0.000   0.000  -0.783   0.000
  0.000   0.000   0.000   0.000  -0.002   0.000   0.000  -0.783
 total augmentation occupancy for first ion, spin component:           1
  1.348  -0.740   0.000   0.000   0.000   0.000   0.000   0.000
 -0.740   1.208   0.000   0.000   0.000   0.000   0.000   0.000
  0.000   0.000   0.915   0.000   0.000   0.162   0.000   0.000
  0.000   0.000   0.000   0.915   0.000   0.000   0.162   0.000
  0.000   0.000   0.000   0.000   0.915   0.000   0.000   0.162
  0.000   0.000   0.162   0.000   0.000   0.045   0.000   0.000
  0.000   0.000   0.000   0.162   0.000   0.000   0.045   0.000
  0.000   0.000   0.000   0.000   0.162   0.000   0.000   0.045


------------------------ aborting loop because EDIFF is reached ----------------------------------------


    CHARGE:  cpu time    0.18: real time    0.18
    FORLOC:  cpu time    0.10: real time    0.10
    FORNL :  cpu time    0.21: real time    0.21
    STRESS:  cpu time    0.49: real time    0.49
    FORHAR:  cpu time    0.31: real time    0.31
    MIXING:  cpu time    0.04: real time    0.04

  FORCE on cell =-STRESS in cart. coord.  units (eV):
  Direction    XX          YY          ZZ          XY          YZ          ZX
  --------------------------------------------------------------------------------------
  Alpha Z     7.54128     7.54128     7.54128
  Ewald     184.03256   184.03256   184.03256     0.00000     0.00000     0.00000
  Hartree   988.44405   988.44405   988.44405     0.00000     0.00000     0.00000
  E(xc)    -173.95949  -173.95949  -173.95949     0.00000     0.00000     0.00000
  Local   -1626.40106 -1626.40106 -1626.40106     0.00000     0.00000     0.00000
  n-local  -160.97870  -160.97870  -160.97870     0.00000     0.00000     0.00000
  augment    70.89603    70.89603    70.89603    -0.00001    -0.00001    -0.00001
  Kinetic   706.91670   706.91670   706.91670     0.00000     0.00000     0.00000
  Fock        0.00000     0.00000     0.00000     0.00000     0.00000     0.00000
  -------------------------------------------------------------------------------------
  Total      -3.50863    -3.50863    -3.50863     0.00000     0.00000     0.00000
  in kB     -10.97938   -10.97938   -10.97938     0.00000     0.00000     0.00000
  external pressure =      -10.98 kB  Pullay stress =        0.00 kB


 VOLUME and BASIS-vectors are now :
 -----------------------------------------------------------------------------
  energy-cutoff  :      450.00
  volume of cell :      512.00
      direct lattice vectors                 reciprocal lattice vectors
     8.000000000  0.000000000  0.000000000     0.125000000  0.000000000  0.000000000
     0.000000000  8.000000000  0.000000000     0.000000000  0.125000000  0.000000000
     0.000000000  0.000000000  8.000000000     0.000000000  0.000000000  0.125000000

  length of vectors
     8.000000000  8.000000000  8.000000000     0.125000000  0.125000000  0.125000000


 FORCES acting on ions
    electron-ion (+dipol)            ewald-force                    non-local-force                 convergence-correction
 -----------------------------------------------------------------------------------------------
   0.269E-13 -.677E-14 0.260E-13   0.677E-13 0.466E-13 -.101E-13   0.165E-23 -.165E-23 -.165E-23   0.924E-13 -.129E-12 -.499E-12
   -.273E+03 -.273E+03 -.273E+03   0.304E+03 0.304E+03 0.304E+03   -.323E+02 -.323E+02 -.323E+02   0.361E-01 0.361E-01 0.361E-01
   0.273E+03 0.273E+03 -.273E+03   -.304E+03 -.304E+03 0.304E+03   0.323E+02 0.323E+02 -.323E+02   -.361E-01 -.361E-01 0.361E-01
   0.273E+03 -.273E+03 0.273E+03   -.304E+03 0.304E+03 -.304E+03   0.323E+02 -.323E+02 0.323E+02   -.361E-01 0.361E-01 -.361E-01
   -.273E+03 0.273E+03 0.273E+03   0.304E+03 -.304E+03 -.304E+03   -.323E+02 0.323E+02 0.323E+02   0.361E-01 -.361E-01 -.361E-01
 -----------------------------------------------------------------------------------------------
   -.403E-05 -.403E-05 -.104E-06   -.568E-13 0.114E-12 0.568E-13   0.000E+00 0.711E-14 -.711E-14   0.755E-12 -.581E-12 -.380E-11
 
 
 POSITION                                       TOTAL-FORCE (eV/Angst)
 -----------------------------------------------------------------------------------
      0.00000      0.00000      0.00000         0.000000      0.000000      0.000000
      0.79059      0.79059      0.79059        -0.685625     -0.685625     -0.685625
      7.20941      7.20941      0.79059         0.685625      0.685625     -0.685625
      7.20941      0.79059      7.20941         0.685625     -0.685625      0.685625
      0.79059      7.20941      7.20941        -0.685625      0.685625      0.685625
 -----------------------------------------------------------------------------------
    total drift:                               -0.000004     -0.000004      0.000000


--------------------------------------------------------------------------------------------------------



  FREE ENERGIE OF THE ION-ELECTRON SYSTEM (eV)
  ---------------------------------------------------
  free  energy   TOTEN  =       -25.841020 eV

  energy  without entropy=      -25.841020  energy(sigma->0) =      -25.841020
 
 d Force =-0.2856943E-01[-0.191E+00, 0.133E+00]  d Energy =-0.3568605E-01 0.712E-02
 d Force = 0.8734411E+02[ 0.845E+02, 0.902E+02]  d Ewald  = 0.8730299E+02 0.411E-01


--------------------------------------------------------------------------------------------------------


    POTLOK:  cpu time    0.87: real time    0.87


--------------------------------------------------------------------------------------------------------


 Steepest descent step on ions:
 trial-energy change:    0.035686  1 .order    0.028569   -0.133381    0.190519
  (g-gl).g = 0.133E+00      g.g   = 0.133E+00  gl.gl    = 0.000E+00
 g(Force)  = 0.133E+00   g(Stress)= 0.000E+00 ortho     = 0.000E+00
 gamma     =   0.00000
 trial     =   1.00000
 opt step  =   0.38071  (harmonic =   0.41180) maximal distance =0.00881597
 next E    =   -25.901704   (d E  =  -0.02500)


--------------------------------------------------------------------------------------------------------


    WAVPRE:  cpu time    0.18: real time    0.18
    FEWALD:  cpu time    0.00: real time    0.00
    ORTHCH:  cpu time    0.05: real time    0.05
     LOOP+:  cpu time   19.96: real time   22.25


----------------------------------------- Iteration    3(   1)  ---------------------------------------


    POTLOK:  cpu time    0.86: real time    0.86
    SETDIJ:  cpu time    0.01: real time    0.01
     EDDAV:  cpu time    1.22: real time    1.22
       DOS:  cpu time    0.00: real time    0.00
    CHARGE:  cpu time    0.18: real time    0.18
    MIXING:  cpu time    0.03: real time    0.03
    --------------------------------------------
      LOOP:  cpu time    2.31: real time    2.31

 eigenvalue-minimisations  :    48
 total energy-change (2. order) :-0.3372224E-01  (-0.1832094E+01)
 number of electron      31.9999890 magnetization 
 augmentation part        5.1676641 magnetization 

 Broyden mixing:
  rms(total) = 0.10307E+00    rms(broyden)= 0.10168E+00
  rms(prec ) = 0.11744E+00
  weight for this iteration     100.00

 Free energy of the ion-electron system (eV)
  ---------------------------------------------------
  alpha Z        PSCENC =         7.54128431
  Ewald energy   TEWEN  =       605.49618415
  -1/2 Hartree   DENC   =     -3011.36747275
  -exchange  EXHF       =         0.00000000
  -V(xc)+E(xc)   XCENC  =       164.88369966
  PAW double counting   =      1972.18874576    -1993.96112685
  entropy T*S    EENTRO =         0.00000000
  eigenvalues    EBANDS =      -555.51571051
  atomic energy  EATOM  =      2784.85974696
  ---------------------------------------------------
  free energy    TOTEN  =       -25.87464926 eV

  energy without entropy =      -25.87464926  energy(sigma->0) =      -25.87464926


--------------------------------------------------------------------------------------------------------




----------------------------------------- Iteration    3(   2)  ---------------------------------------


    POTLOK:  cpu time    0.87: real time    0.87
    SETDIJ:  cpu time    0.01: real time    0.01
     EDDAV:  cpu time    1.23: real time    1.23
       DOS:  cpu time    0.00: real time    0.00
    CHARGE:  cpu time    0.18: real time    0.18
    MIXING:  cpu time    0.03: real time    0.03
    --------------------------------------------
      LOOP:  cpu time    2.34: real time    2.38

 eigenvalue-minimisations  :    48
 total energy-change (2. order) :-0.2847218E-01  (-0.4204601E-01)
 number of electron      31.9999891 magnetization 
 augmentation part        5.1573103 magnetization 

 Broyden mixing:
  rms(total) = 0.58403E-01    rms(broyden)= 0.58219E-01
  rms(prec ) = 0.70577E-01
  weight for this iteration     100.00

 eigenvalues of (default mixing * dielectric matrix)
  average eigenvalue GAMMA=   0.9455
  0.9455

 Free energy of the ion-electron system (eV)
  ---------------------------------------------------
  alpha Z        PSCENC =         7.54128431
  Ewald energy   TEWEN  =       605.49618415
  -1/2 Hartree   DENC   =     -3014.45829701
  -exchange  EXHF       =         0.00000000
  -V(xc)+E(xc)   XCENC  =       165.05867329
  PAW double counting   =      1981.50615785    -2003.33546881
  entropy T*S    EENTRO =         0.00000000
  eigenvalues    EBANDS =      -552.57140219
  atomic energy  EATOM  =      2784.85974696
  ---------------------------------------------------
  free energy    TOTEN  =       -25.90312144 eV

  energy without entropy =      -25.90312144  energy(sigma->0) =      -25.90312144


--------------------------------------------------------------------------------------------------------




----------------------------------------- Iteration    3(   3)  ---------------------------------------


    POTLOK:  cpu time    0.90: real time    0.90
    SETDIJ:  cpu time    0.01: real time    0.01
     EDDAV:  cpu time    1.22: real time    1.22
       DOS:  cpu time    0.00: real time    0.00
    CHARGE:  cpu time    0.18: real time    0.18
    MIXING:  cpu time    0.03: real time    0.03
    --------------------------------------------
      LOOP:  cpu time    2.35: real time    2.42

 eigenvalue-minimisations  :    48
 total energy-change (2. order) : 0.3189551E-02  (-0.5582348E-03)
 number of electron      31.9999891 magnetization 
 augmentation part        5.1584326 magnetization 

 Broyden mixing:
  rms(total) = 0.35684E-01    rms(broyden)= 0.35666E-01
  rms(prec ) = 0.41995E-01
  weight for this iteration     100.00

 eigenvalues of (default mixing * dielectric matrix)
  average eigenvalue GAMMA=   1.6054
  1.0057  2.2051

 Free energy of the ion-electron system (eV)
  ---------------------------------------------------
  alpha Z        PSCENC =         7.54128431
  Ewald energy   TEWEN  =       605.49618415
  -1/2 Hartree   DENC   =     -3015.13975374
  -exchange  EXHF       =         0.00000000
  -V(xc)+E(xc)   XCENC  =       165.06870289
  PAW double counting   =      1984.16218455    -2006.01385839
  entropy T*S    EENTRO =         0.00000000
  eigenvalues    EBANDS =      -551.87442262
  atomic energy  EATOM  =      2784.85974696
  ---------------------------------------------------
  free energy    TOTEN  =       -25.89993189 eV

  energy without entropy =      -25.89993189  energy(sigma->0) =      -25.89993189


--------------------------------------------------------------------------------------------------------




----------------------------------------- Iteration    3(   4)  ---------------------------------------


    POTLOK:  cpu time    0.95: real time    0.95
    SETDIJ:  cpu time    0.01: real time    0.01
     EDDAV:  cpu time    1.22: real time    1.22
       DOS:  cpu time    0.00: real time    0.00
    CHARGE:  cpu time    0.18: real time    0.18
    MIXING:  cpu time    0.03: real time    0.03
    --------------------------------------------
      LOOP:  cpu time    2.40: real time    3.11

 eigenvalue-minimisations  :    48
 total energy-change (2. order) :-0.1973933E-02  (-0.1432132E-02)
 number of electron      31.9999891 magnetization 
 augmentation part        5.1636331 magnetization 

 Broyden mixing:
  rms(total) = 0.10693E-01    rms(broyden)= 0.10659E-01
  rms(prec ) = 0.16244E-01
  weight for this iteration     100.00

 eigenvalues of (default mixing * dielectric matrix)
  average eigenvalue GAMMA=   1.1849
  2.2082  0.9735  0.3730

 Free energy of the ion-electron system (eV)
  ---------------------------------------------------
  alpha Z        PSCENC =         7.54128431
  Ewald energy   TEWEN  =       605.49618415
  -1/2 Hartree   DENC   =     -3015.98567934
  -exchange  EXHF       =         0.00000000
  -V(xc)+E(xc)   XCENC  =       165.07998581
  PAW double counting   =      1988.50610510    -2010.40124594
  entropy T*S    EENTRO =         0.00000000
  eigenvalues    EBANDS =      -550.99828687
  atomic energy  EATOM  =      2784.85974696
  ---------------------------------------------------
  free energy    TOTEN  =       -25.90190582 eV

  energy without entropy =      -25.90190582  energy(sigma->0) =      -25.90190582


--------------------------------------------------------------------------------------------------------




----------------------------------------- Iteration    3(   5)  ---------------------------------------


    POTLOK:  cpu time    0.94: real time    0.94
    SETDIJ:  cpu time    0.01: real time    0.01
     EDDAV:  cpu time    1.14: real time    1.14
       DOS:  cpu time    0.00: real time    0.00
    --------------------------------------------
      LOOP:  cpu time    2.09: real time    2.18

 eigenvalue-minimisations  :    44
 total energy-change (2. order) : 0.8746375E-04  (-0.9650301E-04)
 number of electron      31.9999891 magnetization 
 augmentation part        5.1636331 magnetization 

 Free energy of the ion-electron system (eV)
  ---------------------------------------------------
  alpha Z        PSCENC =         7.54128431
  Ewald energy   TEWEN  =       605.49618415
  -1/2 Hartree   DENC   =     -3016.00930823
  -exchange  EXHF       =         0.00000000
  -V(xc)+E(xc)   XCENC  =       165.08452172
  PAW double counting   =      1988.74790181    -2010.64876564
  entropy T*S    EENTRO =         0.00000000
  eigenvalues    EBANDS =      -550.97338344
  atomic energy  EATOM  =      2784.85974696
  ---------------------------------------------------
  free energy    TOTEN  =       -25.90181836 eV

  energy without entropy =      -25.90181836  energy(sigma->0) =      -25.90181836


--------------------------------------------------------------------------------------------------------




 average (electrostatic) potential at core
  the test charge radii are     0.6991  0.7167
  (the norm of the test charge is              1.0000)
       1 -66.1971       2 -86.8947       3 -86.8947       4 -86.8947       5 -86.8947
 
 
 
 E-fermi :  -8.8266     XC(G=0):  -1.8703     alpha+bet : -0.7008


 k-point   1 :       0.0000    0.0000    0.0000
  band No.  band energies     occupation 
      1     -33.9537      2.00000
      2     -31.0930      2.00000
      3     -31.0930      2.00000
      4     -31.0930      2.00000
      5     -17.5837      2.00000
      6     -15.1387      2.00000
      7     -15.1387      2.00000
      8     -15.1387      2.00000
      9     -11.4799      2.00000
     10     -11.4799      2.00000
     11     -10.9914      2.00000
     12     -10.9914      2.00000
     13     -10.9914      2.00000
     14      -9.7735      2.00000
     15      -9.7735      2.00000
     16      -9.7735      2.00000
     17      -0.3644      0.00000
     18       1.9329      0.00000
     19       1.9329      0.00000
     20       1.9329      0.00000


--------------------------------------------------------------------------------------------------------


 soft charge-density along one line, spin component           1
         0         1         2         3         4         5         6         7         8         9
 total charge-density along one line
 
 pseudopotential strength for first ion, spin component:           1
 10.672   0.033   0.000   0.000   0.000   0.000   0.000   0.000
  0.033  -0.001   0.000   0.000   0.000   0.000   0.000   0.000
  0.000   0.000  -4.789   0.000   0.000  -0.005   0.000   0.000
  0.000   0.000   0.000  -4.789   0.000   0.000  -0.005   0.000
  0.000   0.000   0.000   0.000  -4.789   0.000   0.000  -0.005
  0.000   0.000  -0.005   0.000   0.000  -0.783   0.000   0.000
  0.000   0.000   0.000  -0.005   0.000   0.000  -0.783   0.000
  0.000   0.000   0.000   0.000  -0.005   0.000   0.000  -0.783
 total augmentation occupancy for first ion, spin component:           1
  1.349  -0.832   0.000   0.000   0.000   0.000   0.000   0.000
 -0.832   1.389   0.000   0.000   0.000   0.000   0.000   0.000
  0.000   0.000   0.943   0.000   0.000   0.176   0.000   0.000
  0.000   0.000   0.000   0.943   0.000   0.000   0.176   0.000
  0.000   0.000   0.000   0.000   0.943   0.000   0.000   0.176
  0.000   0.000   0.176   0.000   0.000   0.051   0.000   0.000
  0.000   0.000   0.000   0.176   0.000   0.000   0.051   0.000
  0.000   0.000   0.000   0.000   0.176   0.000   0.000   0.051


------------------------ aborting loop because EDIFF is reached ----------------------------------------


    CHARGE:  cpu time    0.18: real time    0.18
    FORLOC:  cpu time    0.10: real time    0.10
    FORNL :  cpu time    0.21: real time    0.21
    STRESS:  cpu time    0.48: real time    0.48
    FORHAR:  cpu time    0.31: real time    0.32
    MIXING:  cpu time    0.03: real time    0.03

  FORCE on cell =-STRESS in cart. coord.  units (eV):
  Direction    XX          YY          ZZ          XY          YZ          ZX
  --------------------------------------------------------------------------------------
  Alpha Z     7.54128     7.54128     7.54128
  Ewald     201.83176   201.83176   201.83176     0.00000     0.00000     0.00000
  Hartree  1005.35503  1005.35503  1005.35503     0.00000     0.00000     0.00000
  E(xc)    -174.44799  -174.44799  -174.44799     0.00000     0.00000     0.00000
  Local   -1660.14502 -1660.14502 -1660.14502     0.00000     0.00000     0.00000
  n-local  -161.74766  -161.74766  -161.74766     0.00000     0.00000     0.00000
  augment    71.11347    71.11346    71.11347    -0.00002    -0.00002    -0.00002
  Kinetic   709.43453   709.43453   709.43453     0.00000     0.00000     0.00000
  Fock        0.00000     0.00000     0.00000     0.00000     0.00000     0.00000
  -------------------------------------------------------------------------------------
  Total      -1.06461    -1.06461    -1.06461     0.00000     0.00000     0.00000
  in kB      -3.33142    -3.33142    -3.33142     0.00000     0.00000     0.00000
  external pressure =       -3.33 kB  Pullay stress =        0.00 kB


 VOLUME and BASIS-vectors are now :
 -----------------------------------------------------------------------------
  energy-cutoff  :      450.00
  volume of cell :      512.00
      direct lattice vectors                 reciprocal lattice vectors
     8.000000000  0.000000000  0.000000000     0.125000000  0.000000000  0.000000000
     0.000000000  8.000000000  0.000000000     0.000000000  0.125000000  0.000000000
     0.000000000  0.000000000  8.000000000     0.000000000  0.000000000  0.125000000

  length of vectors
     8.000000000  8.000000000  8.000000000     0.125000000  0.125000000  0.125000000


 FORCES acting on ions
    electron-ion (+dipol)            ewald-force                    non-local-force                 convergence-correction
 -----------------------------------------------------------------------------------------------
   -.450E-14 0.105E-13 0.408E-13   -.278E-14 0.318E-13 0.318E-13   -.103E-24 -.103E-24 -.103E-24   0.850E-13 0.205E-12 0.104E-12
   -.283E+03 -.283E+03 -.283E+03   0.317E+03 0.317E+03 0.317E+03   -.333E+02 -.333E+02 -.333E+02   -.266E+00 -.266E+00 -.266E+00
   0.283E+03 0.283E+03 -.283E+03   -.317E+03 -.317E+03 0.317E+03   0.333E+02 0.333E+02 -.333E+02   0.266E+00 0.266E+00 -.266E+00
   0.283E+03 -.283E+03 0.283E+03   -.317E+03 0.317E+03 -.317E+03   0.333E+02 -.333E+02 0.333E+02   0.266E+00 -.266E+00 0.266E+00
   -.283E+03 0.283E+03 0.283E+03   0.317E+03 -.317E+03 -.317E+03   -.333E+02 0.333E+02 0.333E+02   -.266E+00 0.266E+00 0.266E+00
 -----------------------------------------------------------------------------------------------
   -.272E-05 -.272E-05 -.389E-07   0.000E+00 0.568E-13 -.568E-13   0.711E-14 0.000E+00 0.711E-14   0.306E-12 0.152E-11 0.923E-12
 
 
 POSITION                                       TOTAL-FORCE (eV/Angst)
 -----------------------------------------------------------------------------------
      0.00000      0.00000      0.00000         0.000000      0.000000      0.000000
      0.77625      0.77625      0.77625         0.004630      0.004630      0.004630
      7.22375      7.22375      0.77625        -0.004630     -0.004630      0.004630
      7.22375      0.77625      7.22375        -0.004630      0.004630     -0.004630
      0.77625      7.22375      7.22375         0.004630     -0.004630     -0.004630
 -----------------------------------------------------------------------------------
    total drift:                               -0.000003     -0.000003      0.000000


--------------------------------------------------------------------------------------------------------



  FREE ENERGIE OF THE ION-ELECTRON SYSTEM (eV)
  ---------------------------------------------------
  free  energy   TOTEN  =       -25.901818 eV

  energy  without entropy=      -25.901818  energy(sigma->0) =      -25.901818
 
 d Force = 0.5859463E-01[-0.797E-03, 0.118E+00]  d Energy = 0.6079789E-01-0.220E-02
 d Force =-0.5340717E+02[-0.545E+02,-0.523E+02]  d Ewald  =-0.5339763E+02-0.955E-02


--------------------------------------------------------------------------------------------------------


    POTLOK:  cpu time    0.95: real time    0.95


--------------------------------------------------------------------------------------------------------




--------------------------------------------------------------------------------------------------------


  
 reached required accuracy - stopping structural energy minimisation
 writing wavefunctions
     LOOP+:  cpu time   13.78: real time   14.94
    4ORBIT:  cpu time    0.00: real time    0.00

 total amount of memory used by VASP on root node    93273. kBytes
========================================================================

   base      :      30000. kBytes
   nonl-proj :       2301. kBytes
   fftplans  :      20656. kBytes
   grid      :      36747. kBytes
   one-center:         15. kBytes
   wavefun   :       3554. kBytes
 
  
  
 General timing and accounting informations for this job:
 ========================================================
  
                  Total CPU time used (sec):       60.696
                            User time (sec):       60.116
                          System time (sec):        0.580
                         Elapsed time (sec):       67.458
  
                   Maximum memory used (kb):           0.
                   Average memory used (kb):           0.
  
                          Minor page faults:       161605
                          Major page faults:            0
                 Voluntary context switches:         2063
