<?xml version="1.0" encoding="ISO-8859-1"?>
<modeling>
 <generator>
  <i name="program" type="string">vasp </i>
  <i name="version" type="string">5.2.12  </i>
  <i name="subversion" type="string">11Nov11 complex                                                      parallel </i>
  <i name="platform" type="string">LinuxIFC </i>
  <i name="date" type="string">2012 11 03 </i>
  <i name="time" type="string">02:53:42 </i>
 </generator>
 <incar>
  <i type="string" name="PREC">normal</i>
  <i type="int" name="IBRION">     2</i>
  <i type="int" name="NSW">    10</i>
  <i name="ENCUT">    450.00000000</i>
  <i type="int" name="ISMEAR">     0</i>
 </incar>
 <kpoints>
  <generation param="Monkhorst-Pack">
   <v type="int" name="divisions">       1        1        1 </v>
   <v name="usershift">      0.00000000       0.00000000       0.00000000 </v>
   <v name="genvec1">      1.00000000       0.00000000       0.00000000 </v>
   <v name="genvec2">      0.00000000       1.00000000       0.00000000 </v>
   <v name="genvec3">      0.00000000       0.00000000       1.00000000 </v>
   <v name="shift">      0.00000000       0.00000000       0.00000000 </v>
  </generation>
  <varray name="kpointlist" >
   <v>       0.00000000       0.00000000       0.00000000 </v>
  </varray>
  <varray name="weights" >
   <v>       1.00000000 </v>
  </varray>
 </kpoints>
 <parameters>
  <separator name="general" >
   <i type="string" name="SYSTEM">unknown system</i>
   <i type="logical" name="LCOMPAT"> F  </i>
  </separator>
  <separator name="electronic" >
   <i type="string" name="PREC">normal</i>
   <i name="ENMAX">    450.00000000</i>
   <i name="ENAUG">    644.87300000</i>
   <i name="EDIFF">      0.00010000</i>
   <i type="int" name="IALGO">    38</i>
   <i type="int" name="IWAVPR">    11</i>
   <i type="int" name="NBANDS">    20</i>
   <i name="NELECT">     32.00000000</i>
   <i type="int" name="TURBO">     0</i>
   <i type="int" name="IRESTART">     0</i>
   <i type="int" name="NREBOOT">     0</i>
   <i type="int" name="NMIN">     0</i>
   <i name="EREF">      0.00000000</i>
   <separator name="electronic smearing" >
    <i type="int" name="ISMEAR">     0</i>
    <i name="SIGMA">      0.20000000</i>
    <i name="KSPACING">      0.50000000</i>
    <i type="logical" name="KGAMMA"> T  </i>
   </separator>
   <separator name="electronic projectors" >
    <i type="logical" name="LREAL"> F  </i>
    <v name="ROPT">      0.00000000      0.00000000</v>
    <i type="int" name="LMAXPAW">  -100</i>
    <i type="int" name="LMAXMIX">     2</i>
    <i type="logical" name="NLSPLINE"> F  </i>
   </separator>
   <separator name="electronic startup" >
    <i type="int" name="ISTART">     0</i>
    <i type="int" name="ICHARG">     2</i>
    <i type="int" name="INIWAV">     1</i>
   </separator>
   <separator name="electronic spin" >
    <i type="int" name="ISPIN">     1</i>
    <i type="logical" name="LNONCOLLINEAR"> F  </i>
    <v name="MAGMOM">      1.00000000      1.00000000      1.00000000      1.00000000      1.00000000</v>
    <i name="NUPDOWN">     -1.00000000</i>
    <i type="logical" name="LSORBIT"> F  </i>
    <v name="SAXIS">      0.00000000      0.00000000      1.00000000</v>
    <i type="logical" name="LSPIRAL"> F  </i>
    <v name="QSPIRAL">      0.00000000      0.00000000      0.00000000</v>
    <i type="logical" name="LZEROZ"> F  </i>
   </separator>
   <separator name="electronic exchange-correlation" >
    <i type="logical" name="LASPH"> F  </i>
    <i type="logical" name="LMETAGGA"> F  </i>
   </separator>
   <separator name="electronic convergence" >
    <i type="int" name="NELM">    60</i>
    <i type="int" name="NELMDL">    -5</i>
    <i type="int" name="NELMIN">     2</i>
    <i name="ENINI">    450.00000000</i>
    <separator name="electronic convergence detail" >
     <i type="logical" name="LDIAG"> T  </i>
     <i type="logical" name="LSUBROT"> T  </i>
     <i name="WEIMIN">      0.00100000</i>
     <i name="EBREAK">      0.00000125</i>
     <i name="DEPER">      0.30000000</i>
     <i type="int" name="NRMM">     4</i>
     <i name="TIME">      0.40000000</i>
    </separator>
   </separator>
   <separator name="electronic mixer" >
    <i name="AMIX">      0.40000000</i>
    <i name="BMIX">      1.00000000</i>
    <i name="AMIN">      0.10000000</i>
    <i name="AMIX_MAG">      1.60000000</i>
    <i name="BMIX_MAG">      1.00000000</i>
    <separator name="electronic mixer details" >
     <i type="int" name="IMIX">     4</i>
     <i type="int" name="MAXMIX">   -45</i>
     <i name="WC">    100.00000000</i>
     <i type="int" name="INIMIX">     1</i>
     <i type="int" name="MIXPRE">     1</i>
     <i type="int" name="MREMOVE">     5</i>
    </separator>
   </separator>
   <separator name="electronic dipolcorrection" >
    <i type="logical" name="LDIPOL"> F  </i>
    <i type="logical" name="LMONO"> F  </i>
    <i type="int" name="IDIPOL">     0</i>
    <i name="EPSILON">      1.00000000</i>
    <v name="DIPOL">   -100.00000000   -100.00000000   -100.00000000</v>
    <i name="EFIELD">      0.00000000</i>
   </separator>
  </separator>
  <separator name="grids" >
   <i type="int" name="NGX">    42</i>
   <i type="int" name="NGY">    42</i>
   <i type="int" name="NGZ">    42</i>
   <i type="int" name="NGXF">    84</i>
   <i type="int" name="NGYF">    84</i>
   <i type="int" name="NGZF">    84</i>
   <i type="logical" name="ADDGRID"> F  </i>
  </separator>
  <separator name="ionic" >
   <i type="int" name="NSW">    10</i>
   <i type="int" name="IBRION">     2</i>
   <i type="int" name="ISIF">     2</i>
   <i name="PSTRESS">      0.00000000</i>
   <i name="EDIFFG">      0.00100000</i>
   <i type="int" name="NFREE">     1</i>
   <i name="POTIM">      0.50000000</i>
   <i name="SMASS">     -3.00000000</i>
   <i name="SCALEE">      1.00000000</i>
  </separator>
  <separator name="ionic md" >
   <i name="TEBEG">      0.00010000</i>
   <i name="TEEND">      0.00010000</i>
   <i type="int" name="NBLOCK">     1</i>
   <i type="int" name="KBLOCK">    10</i>
   <i type="int" name="NPACO">   256</i>
   <i name="APACO">     16.00000000</i>
  </separator>
  <separator name="symmetry" >
   <i type="int" name="ISYM">     2</i>
   <i name="SYMPREC">      0.00001000</i>
  </separator>
  <separator name="dos" >
   <i type="logical" name="LORBIT"> F  </i>
   <v name="RWIGS">     -1.00000000     -1.00000000</v>
   <i type="int" name="NEDOS">   301</i>
   <i name="EMIN">     10.00000000</i>
   <i name="EMAX">    -10.00000000</i>
   <i name="EFERMI">      0.00000000</i>
  </separator>
  <separator name="writing" >
   <i type="int" name="NWRITE">     2</i>
   <i type="logical" name="LWAVE"> T  </i>
   <i type="logical" name="LCHARG"> T  </i>
   <i type="logical" name="LPARD"> F  </i>
   <i type="logical" name="LVTOT"> F  </i>
   <i type="logical" name="LVHAR"> F  </i>
   <i type="logical" name="LELF"> F  </i>
   <i type="logical" name="LOPTICS"> F  </i>
   <v name="STM">      0.00000000      0.00000000      0.00000000      0.00000000      0.00000000      0.00000000      0.00000000</v>
  </separator>
  <separator name="performance" >
   <i type="int" name="NPAR">     1</i>
   <i type="int" name="NSIM">     4</i>
   <i type="int" name="NBLK">    -1</i>
   <i type="logical" name="LPLANE"> T  </i>
   <i type="logical" name="LSCALAPACK"> F  </i>
   <i type="logical" name="LSCAAWARE"> F  </i>
   <i type="logical" name="LSCALU"> F  </i>
   <i type="logical" name="LASYNC"> F  </i>
   <i type="logical" name="LORBITALREAL"> F  </i>
  </separator>
  <separator name="miscellaneous" >
   <i type="int" name="IDIOT">     3</i>
   <i type="logical" name="LMUSIC"> F  </i>
   <v name="POMASS">     12.01100000     18.99800000</v>
   <v name="DARWINR">      0.00000000      0.00000000</v>
   <v name="DARWINV">      1.00000000      1.00000000</v>
   <i type="logical" name="LCORR"> T  </i>
  </separator>
  <i type="logical" name="GGA_COMPAT"> T  </i>
  <i type="logical" name="LBERRY"> F  </i>
  <i type="int" name="ICORELEVEL">     0</i>
  <i type="logical" name="LDAU"> F  </i>
  <i type="int" name="I_CONSTRAINED_M">     0</i>
  <separator name="electronic exchange-correlation" >
   <i type="string" name="GGA">--</i>
   <i type="int" name="VOSKOWN">     0</i>
   <i type="logical" name="LHFCALC"> F  </i>
   <i type="string" name="PRECFOCK"></i>
   <i type="logical" name="LHFONE"> F  </i>
   <i type="logical" name="LRHFCALC"> F  </i>
   <i type="logical" name="LTHOMAS"> F  </i>
   <i type="logical" name="LMODELHF"> F  </i>
   <i name="ENCUT4O">     -1.00000000</i>
   <i type="int" name="EXXOEP">     0</i>
   <i type="int" name="FOURORBIT">     0</i>
   <i name="AEXX">      0.00000000</i>
   <i name="HFALPHA">      0.00000000</i>
   <i name="ALDAX">      1.00000000</i>
   <i name="AGGAX">      1.00000000</i>
   <i name="ALDAC">      1.00000000</i>
   <i name="AGGAC">      1.00000000</i>
   <i type="int" name="NKREDX">     1</i>
   <i type="int" name="NKREDY">     1</i>
   <i type="int" name="NKREDZ">     1</i>
   <i type="logical" name="SHIFTRED"> F  </i>
   <i type="logical" name="ODDONLY"> F  </i>
   <i type="logical" name="EVENONLY"> F  </i>
   <i type="int" name="LMAXFOCK">     0</i>
   <i type="int" name="NMAXFOCKAE">     0</i>
   <i type="logical" name="LFOCKAEDFT"> F  </i>
   <i name="HFSCREEN">      0.00000000</i>
   <i name="HFSCREENC">      0.00000000</i>
  </separator>
  <separator name="vdW DFT" >
   <i type="logical" name="LUSE_VDW"> F  </i>
   <i name="Zab_VDW">     -0.84910000</i>
   <i name="PARAM1">      0.12340000</i>
   <i name="PARAM2">      1.00000000</i>
   <i name="PARAM3">      0.00000000</i>
  </separator>
  <separator name="model GW" >
   <i type="int" name="MODEL_GW">     0</i>
   <i name="MODEL_EPS0">     61.44000000</i>
   <i name="MODEL_ALPHA">      1.00000000</i>
  </separator>
  <separator name="linear response parameters" >
   <i type="logical" name="LEPSILON"> F  </i>
   <i type="logical" name="LRPA"> F  </i>
   <i type="logical" name="LNABLA"> F  </i>
   <i type="logical" name="LVEL"> F  </i>
   <i type="int" name="KINTER">     0</i>
   <i name="CSHIFT">      0.10000000</i>
   <i name="OMEGAMAX">     -1.00000000</i>
  </separator>
  <separator name="orbital magnetization" >
   <i type="logical" name="NUCIND"> F  </i>
   <v name="MAGPOS">      0.00000000      0.00000000      0.00000000</v>
   <i type="logical" name="LNICSALL"> T  </i>
   <i type="logical" name="ORBITALMAG"> F  </i>
   <i type="logical" name="LMAGBLOCH"> F  </i>
   <i type="logical" name="LCHIMAG"> F  </i>
   <i type="logical" name="LGAUGE"> T  </i>
   <i type="int" name="MAGATOM">     0</i>
   <v name="MAGDIPOL">      0.00000000      0.00000000      0.00000000</v>
   <v name="AVECCONST">      0.00000000      0.00000000      0.00000000</v>
  </separator>
  <separator name="response functions" >
   <i type="logical" name="LADDER"> F  </i>
   <i type="logical" name="LHARTREE"> T  </i>
   <i type="int" name="IBSE">     0</i>
   <i type="logical" name="LTCTE"> F  </i>
   <i type="logical" name="LTETE"> F  </i>
   <i type="logical" name="LFXCEPS"> F  </i>
   <i type="logical" name="L2ORDER"> F  </i>
   <i type="logical" name="LUSEW"> F  </i>
   <i name="ENCUTGW">     -2.00000000</i>
   <i name="ENCUTGWSOFT">     -2.00000000</i>
   <i name="ENCUTLF">     -1.00000000</i>
   <i type="int" name="LMAXMP2">    -1</i>
   <i name="SCISSOR">      0.00000000</i>
   <i type="int" name="NOMEGA">     0</i>
   <i type="int" name="NOMEGAR">     0</i>
   <i type="int" name="NBANDSGW">    -1</i>
   <i type="int" name="NBANDSO">    -1</i>
   <i type="int" name="NBANDSV">    -1</i>
   <i name="OPTEMAX">      0.00000000</i>
   <i type="int" name="NELM">     1</i>
   <i type="int" name="DIM">     3</i>
   <i type="int" name="ANTIRES">     0</i>
   <i name="OMEGAMAX">    -30.00000000</i>
   <i name="OMEGATL">   -200.00000000</i>
   <i type="int" name="OMEGAGRID">     0</i>
   <i name="CSHIFT">     -0.10000000</i>
   <i type="logical" name="SELFENERGY"> F  </i>
   <i type="logical" name="LSPECTRAL"> F  </i>
   <i type="logical" name="ODDONLYGW"> F  </i>
   <i type="logical" name="EVENONLYGW"> F  </i>
   <i type="int" name="NKREDLFX">     1</i>
   <i type="int" name="NKREDLFY">     1</i>
   <i type="int" name="NKREDLFZ">     1</i>
   <i type="int" name="MAXMEM">  1800</i>
   <i type="int" name="TELESCOPE">     0</i>
  </separator>
 </parameters>
 <atominfo>
  <atoms>       5 </atoms>
  <types>       2 </types>
  <array name="atoms" >
   <dimension dim="1">ion</dimension>
   <field type="string">element</field>
   <field type="int">atomtype</field>
   <set>
    <rc><c>C </c><c>   1</c></rc>
    <rc><c>F </c><c>   2</c></rc>
    <rc><c>F </c><c>   2</c></rc>
    <rc><c>F </c><c>   2</c></rc>
    <rc><c>F </c><c>   2</c></rc>
   </set>
  </array>
  <array name="atomtypes" >
   <dimension dim="1">type</dimension>
   <field type="int">atomspertype</field>
   <field type="string">element</field>
   <field>mass</field>
   <field>valence</field>
   <field type="string">pseudopotential</field>
   <set>
    <rc><c>   1</c><c>C </c><c>     12.01100000</c><c>      4.00000000</c><c> PAW_PBE C 08Apr2002                    </c></rc>
    <rc><c>   4</c><c>F </c><c>     18.99800000</c><c>      7.00000000</c><c> PAW_PBE F 08Apr2002                    </c></rc>
   </set>
  </array>
 </atominfo>
 <structure name="initialpos" >
  <crystal>
   <varray name="basis" >
    <v>       8.00000000       0.00000000       0.00000000 </v>
    <v>       0.00000000       8.00000000       0.00000000 </v>
    <v>       0.00000000       0.00000000       8.00000000 </v>
   </varray>
   <i name="volume">    512.00000000 </i>
   <varray name="rec_basis" >
    <v>       0.12500000       0.00000000       0.00000000 </v>
    <v>       0.00000000       0.12500000       0.00000000 </v>
    <v>       0.00000000       0.00000000       0.12500000 </v>
   </varray>
  </crystal>
  <varray name="positions" >
   <v>       0.00000000       0.00000000       0.00000000 </v>
   <v>       0.09592950       0.09592950       0.09592950 </v>
   <v>       0.90407050       0.90407050       0.09592950 </v>
   <v>       0.90407050       0.09592950       0.90407050 </v>
   <v>       0.09592950       0.90407050       0.90407050 </v>
  </varray>
 </structure>
 <calculation>
  <scstep>
   <time name="dav">    1.31    1.31</time>
   <time name="total">    2.34    2.38</time>
   <energy>
    <i name="alphaZ">      7.54128431 </i>
    <i name="ewald">    639.40154998 </i>
    <i name="hartreedc">  -3017.86676480 </i>
    <i name="XCdc">    162.93168310 </i>
    <i name="pawpsdc">   1763.54531609 </i>
    <i name="pawaedc">  -1785.13761353 </i>
    <i name="eentropy">     -0.00139005 </i>
    <i name="bandstr">   -274.77850217 </i>
    <i name="atom">   2784.85974696 </i>
    <i name="e_fr_energy">    280.49530990 </i>
    <i name="e_wo_entrp">    280.49669995 </i>
    <i name="e_0_energy">    280.49600493 </i>
   </energy>
  </scstep>
  <scstep>
   <time name="dav">    1.59    1.59</time>
   <time name="total">    1.59    1.60</time>
   <energy>
    <i name="e_fr_energy">     22.88522646 </i>
    <i name="e_wo_entrp">     22.88522646 </i>
    <i name="e_0_energy">     22.88522646 </i>
   </energy>
  </scstep>
  <scstep>
   <time name="dav">    1.08    1.08</time>
   <time name="total">    1.08    1.10</time>
   <energy>
    <i name="e_fr_energy">    -26.40487441 </i>
    <i name="e_wo_entrp">    -26.40487441 </i>
    <i name="e_0_energy">    -26.40487441 </i>
   </energy>
  </scstep>
  <scstep>
   <time name="dav">    1.16    1.16</time>
   <time name="total">    1.16    1.18</time>
   <energy>
    <i name="e_fr_energy">    -27.55696025 </i>
    <i name="e_wo_entrp">    -27.55696025 </i>
    <i name="e_0_energy">    -27.55696025 </i>
   </energy>
  </scstep>
  <scstep>
   <time name="dav">    1.15    1.16</time>
   <time name="total">    1.38    1.82</time>
   <energy>
    <i name="e_fr_energy">    -27.58808341 </i>
    <i name="e_wo_entrp">    -27.58808341 </i>
    <i name="e_0_energy">    -27.58808341 </i>
   </energy>
  </scstep>
  <scstep>
   <time name="dav">    1.08    1.08</time>
   <time name="total">    2.26    2.41</time>
   <energy>
    <i name="e_fr_energy">    -25.87769346 </i>
    <i name="e_wo_entrp">    -25.87769346 </i>
    <i name="e_0_energy">    -25.87769346 </i>
   </energy>
  </scstep>
  <scstep>
   <time name="dav">    1.07    1.08</time>
   <time name="total">    2.27    3.44</time>
   <energy>
    <i name="e_fr_energy">    -25.85809050 </i>
    <i name="e_wo_entrp">    -25.85809050 </i>
    <i name="e_0_energy">    -25.85809050 </i>
   </energy>
  </scstep>
  <scstep>
   <time name="dav">    1.31    1.31</time>
   <time name="total">    2.53    2.54</time>
   <energy>
    <i name="e_fr_energy">    -25.87514545 </i>
    <i name="e_wo_entrp">    -25.87514545 </i>
    <i name="e_0_energy">    -25.87514545 </i>
   </energy>
  </scstep>
  <scstep>
   <time name="dav">    1.01    1.01</time>
   <time name="total">    2.23    2.24</time>
   <energy>
    <i name="e_fr_energy">    -25.87632605 </i>
    <i name="e_wo_entrp">    -25.87632605 </i>
    <i name="e_0_energy">    -25.87632605 </i>
   </energy>
  </scstep>
  <scstep>
   <time name="dav">    1.09    1.09</time>
   <time name="total">    2.32    2.33</time>
   <energy>
    <i name="e_fr_energy">    -25.87661551 </i>
    <i name="e_wo_entrp">    -25.87661551 </i>
    <i name="e_0_energy">    -25.87661551 </i>
   </energy>
  </scstep>
  <scstep>
   <time name="dav">    0.89    0.89</time>
   <time name="total">    1.89    1.91</time>
   <energy>
    <i name="alphaZ">      7.54128431 </i>
    <i name="ewald">    639.40154998 </i>
    <i name="hartreedc">  -3048.19123456 </i>
    <i name="XCdc">    165.43307485 </i>
    <i name="pawpsdc">   2001.42308211 </i>
    <i name="pawaedc">  -2023.41943782 </i>
    <i name="eentropy">      0.00000000 </i>
    <i name="bandstr">   -552.92477237 </i>
    <i name="atom">   2784.85974696 </i>
    <i name="e_fr_energy">    -25.87670652 </i>
    <i name="e_wo_entrp">    -25.87670652 </i>
    <i name="e_0_energy">    -25.87670652 </i>
   </energy>
  </scstep>
  <parameters_embedded>
   <separator name="dft+d2" >
    <i type="logical" name="LVDW"> F  </i>
   </separator>
  </parameters_embedded>
  <structure>
   <crystal>
    <varray name="basis" >
     <v>       8.00000000       0.00000000       0.00000000 </v>
     <v>       0.00000000       8.00000000       0.00000000 </v>
     <v>       0.00000000       0.00000000       8.00000000 </v>
    </varray>
    <i name="volume">    512.00000000 </i>
    <varray name="rec_basis" >
     <v>       0.12500000       0.00000000       0.00000000 </v>
     <v>       0.00000000       0.12500000       0.00000000 </v>
     <v>       0.00000000       0.00000000       0.12500000 </v>
    </varray>
   </crystal>
   <varray name="positions" >
    <v>       0.00000000       0.00000000       0.00000000 </v>
    <v>       0.09592950       0.09592950       0.09592950 </v>
    <v>       0.90407050       0.90407050       0.09592950 </v>
    <v>       0.90407050       0.09592950       0.90407050 </v>
    <v>       0.09592950       0.90407050       0.90407050 </v>
   </varray>
  </structure>
  <varray name="forces" >
   <v>       0.00000000       0.00000000       0.00000000 </v>
   <v>       0.47999867       0.47999867       0.47999867 </v>
   <v>      -0.47999867      -0.47999867       0.47999867 </v>
   <v>      -0.47999867       0.47999867      -0.47999867 </v>
   <v>       0.47999867      -0.47999867      -0.47999867 </v>
  </varray>
  <varray name="stress" >
   <v>       0.65887167       0.00000000       0.00000000 </v>
   <v>       0.00000000       0.65887167       0.00000000 </v>
   <v>       0.00000000       0.00000000       0.65887167 </v>
  </varray>
  <energy>
   <i name="e_fr_energy">    -25.87670652 </i>
   <i name="e_wo_entrp">    -25.87670652 </i>
   <i name="e_0_energy">      0.00000000 </i>
  </energy>
  <time name="totalsc">   24.88   27.71</time>
 </calculation>
 <calculation>
  <scstep>
   <time name="dav">    1.38    1.38</time>
   <time name="total">    2.73    2.73</time>
   <energy>
    <i name="alphaZ">      7.54128431 </i>
    <i name="ewald">    552.09855799 </i>
    <i name="hartreedc">  -2972.87708928 </i>
    <i name="XCdc">    164.89023709 </i>
    <i name="pawpsdc">   2001.17768972 </i>
    <i name="pawaedc">  -2023.18048638 </i>
    <i name="eentropy">      0.00000000 </i>
    <i name="bandstr">   -540.27710235 </i>
    <i name="atom">   2784.85974696 </i>
    <i name="e_fr_energy">    -25.76716193 </i>
    <i name="e_wo_entrp">    -25.76716193 </i>
    <i name="e_0_energy">    -25.76716193 </i>
   </energy>
  </scstep>
  <scstep>
   <time name="dav">    1.40    1.40</time>
   <time name="total">    2.69    2.69</time>
   <energy>
    <i name="e_fr_energy">    -25.84384025 </i>
    <i name="e_wo_entrp">    -25.84384025 </i>
    <i name="e_0_energy">    -25.84384025 </i>
   </energy>
  </scstep>
  <scstep>
   <time name="dav">    1.42    1.42</time>
   <time name="total">    2.71    2.72</time>
   <energy>
    <i name="e_fr_energy">    -25.83550082 </i>
    <i name="e_wo_entrp">    -25.83550082 </i>
    <i name="e_0_energy">    -25.83550082 </i>
   </energy>
  </scstep>
  <scstep>
   <time name="dav">    1.39    1.39</time>
   <time name="total">    2.66    3.65</time>
   <energy>
    <i name="e_fr_energy">    -25.84105061 </i>
    <i name="e_wo_entrp">    -25.84105061 </i>
    <i name="e_0_energy">    -25.84105061 </i>
   </energy>
  </scstep>
  <scstep>
   <time name="dav">    1.31    1.31</time>
   <time name="total">    2.63    3.70</time>
   <energy>
    <i name="e_fr_energy">    -25.84143346 </i>
    <i name="e_wo_entrp">    -25.84143346 </i>
    <i name="e_0_energy">    -25.84143346 </i>
   </energy>
  </scstep>
  <scstep>
   <time name="dav">    1.24    1.24</time>
   <time name="total">    2.34    2.35</time>
   <energy>
    <i name="e_fr_energy">    -25.84092702 </i>
    <i name="e_wo_entrp">    -25.84092702 </i>
    <i name="e_0_energy">    -25.84092702 </i>
   </energy>
  </scstep>
  <scstep>
   <time name="dav">    0.91    0.91</time>
   <time name="total">    1.77    1.84</time>
   <energy>
    <i name="alphaZ">      7.54128431 </i>
    <i name="ewald">    552.09855799 </i>
    <i name="hartreedc">  -2965.48534506 </i>
    <i name="XCdc">    164.56384664 </i>
    <i name="pawpsdc">   1972.13136271 </i>
    <i name="pawaedc">  -1993.89990925 </i>
    <i name="eentropy">      0.00000000 </i>
    <i name="bandstr">   -547.65056479 </i>
    <i name="atom">   2784.85974696 </i>
    <i name="e_fr_energy">    -25.84102047 </i>
    <i name="e_wo_entrp">    -25.84102047 </i>
    <i name="e_0_energy">    -25.84102047 </i>
   </energy>
  </scstep>
  <structure>
   <crystal>
    <varray name="basis" >
     <v>       8.00000000       0.00000000       0.00000000 </v>
     <v>       0.00000000       8.00000000       0.00000000 </v>
     <v>       0.00000000       0.00000000       8.00000000 </v>
    </varray>
    <i name="volume">    512.00000000 </i>
    <varray name="rec_basis" >
     <v>       0.12500000       0.00000000       0.00000000 </v>
     <v>       0.00000000       0.12500000       0.00000000 </v>
     <v>       0.00000000       0.00000000       0.12500000 </v>
    </varray>
   </crystal>
   <varray name="positions" >
    <v>       0.00000000       0.00000000       0.00000000 </v>
    <v>       0.09882405       0.09882405       0.09882405 </v>
    <v>       0.90117595       0.90117595       0.09882405 </v>
    <v>       0.90117595       0.09882405       0.90117595 </v>
    <v>       0.09882405       0.90117595       0.90117595 </v>
   </varray>
  </structure>
  <varray name="forces" >
   <v>       0.00000000       0.00000000       0.00000000 </v>
   <v>      -0.68562519      -0.68562519      -0.68562519 </v>
   <v>       0.68562519       0.68562519      -0.68562519 </v>
   <v>       0.68562519      -0.68562519       0.68562519 </v>
   <v>      -0.68562519       0.68562519       0.68562519 </v>
  </varray>
  <varray name="stress" >
   <v>     -10.97937502       0.00000000       0.00000000 </v>
   <v>       0.00000000     -10.97937502       0.00000000 </v>
   <v>       0.00000000       0.00000000     -10.97937502 </v>
  </varray>
  <energy>
   <i name="e_fr_energy">    -25.84102047 </i>
   <i name="e_wo_entrp">    -25.84102047 </i>
   <i name="e_0_energy">      0.00000000 </i>
  </energy>
  <time name="totalsc">   19.96   22.25</time>
 </calculation>
 <calculation>
  <scstep>
   <time name="dav">    1.22    1.22</time>
   <time name="total">    2.31    2.31</time>
   <energy>
    <i name="alphaZ">      7.54128431 </i>
    <i name="ewald">    605.49618415 </i>
    <i name="hartreedc">  -3011.36747275 </i>
    <i name="XCdc">    164.88369966 </i>
    <i name="pawpsdc">   1972.18874576 </i>
    <i name="pawaedc">  -1993.96112685 </i>
    <i name="eentropy">      0.00000000 </i>
    <i name="bandstr">   -555.51571051 </i>
    <i name="atom">   2784.85974696 </i>
    <i name="e_fr_energy">    -25.87464926 </i>
    <i name="e_wo_entrp">    -25.87464926 </i>
    <i name="e_0_energy">    -25.87464926 </i>
   </energy>
  </scstep>
  <scstep>
   <time name="dav">    1.23    1.23</time>
   <time name="total">    2.34    2.38</time>
   <energy>
    <i name="e_fr_energy">    -25.90312144 </i>
    <i name="e_wo_entrp">    -25.90312144 </i>
    <i name="e_0_energy">    -25.90312144 </i>
   </energy>
  </scstep>
  <scstep>
   <time name="dav">    1.22    1.22</time>
   <time name="total">    2.35    2.42</time>
   <energy>
    <i name="e_fr_energy">    -25.89993189 </i>
    <i name="e_wo_entrp">    -25.89993189 </i>
    <i name="e_0_energy">    -25.89993189 </i>
   </energy>
  </scstep>
  <scstep>
   <time name="dav">    1.22    1.22</time>
   <time name="total">    2.40    3.11</time>
   <energy>
    <i name="e_fr_energy">    -25.90190582 </i>
    <i name="e_wo_entrp">    -25.90190582 </i>
    <i name="e_0_energy">    -25.90190582 </i>
   </energy>
  </scstep>
  <scstep>
   <time name="dav">    1.14    1.14</time>
   <time name="total">    2.09    2.18</time>
   <energy>
    <i name="alphaZ">      7.54128431 </i>
    <i name="ewald">    605.49618415 </i>
    <i name="hartreedc">  -3016.00930823 </i>
    <i name="XCdc">    165.08452172 </i>
    <i name="pawpsdc">   1988.74790181 </i>
    <i name="pawaedc">  -2010.64876564 </i>
    <i name="eentropy">      0.00000000 </i>
    <i name="bandstr">   -550.97338344 </i>
    <i name="atom">   2784.85974696 </i>
    <i name="e_fr_energy">    -25.90181836 </i>
    <i name="e_wo_entrp">    -25.90181836 </i>
    <i name="e_0_energy">    -25.90181836 </i>
   </energy>
  </scstep>
  <structure>
   <crystal>
    <varray name="basis" >
     <v>       8.00000000       0.00000000       0.00000000 </v>
     <v>       0.00000000       8.00000000       0.00000000 </v>
     <v>       0.00000000       0.00000000       8.00000000 </v>
    </varray>
    <i name="volume">    512.00000000 </i>
    <varray name="rec_basis" >
     <v>       0.12500000       0.00000000       0.00000000 </v>
     <v>       0.00000000       0.12500000       0.00000000 </v>
     <v>       0.00000000       0.00000000       0.12500000 </v>
    </varray>
   </crystal>
   <varray name="positions" >
    <v>       0.00000000       0.00000000       0.00000000 </v>
    <v>       0.09703150       0.09703150       0.09703150 </v>
    <v>       0.90296850       0.90296850       0.09703150 </v>
    <v>       0.90296850       0.09703150       0.90296850 </v>
    <v>       0.09703150       0.90296850       0.90296850 </v>
   </varray>
  </structure>
  <varray name="forces" >
   <v>       0.00000000       0.00000000       0.00000000 </v>
   <v>       0.00463010       0.00463010       0.00463010 </v>
   <v>      -0.00463010      -0.00463010       0.00463010 </v>
   <v>      -0.00463010       0.00463010      -0.00463010 </v>
   <v>       0.00463010      -0.00463010      -0.00463010 </v>
  </varray>
  <varray name="stress" >
   <v>      -3.33142232       0.00000000       0.00000000 </v>
   <v>       0.00000000      -3.33142232       0.00000000 </v>
   <v>       0.00000000       0.00000000      -3.33142232 </v>
  </varray>
  <energy>
   <i name="e_fr_energy">    -25.90181836 </i>
   <i name="e_wo_entrp">    -25.90181836 </i>
   <i name="e_0_energy">      0.00000000 </i>
  </energy>
  <time name="totalsc">   13.78   14.94</time>
  <eigenvalues>
   <array>
    <dimension dim="1">band</dimension>
    <dimension dim="2">kpoint</dimension>
    <dimension dim="3">spin</dimension>
    <field>eigene</field>
    <field>occ</field>
    <set>
     <set comment="spin 1">
      <set comment="kpoint 1">
       <r>  -33.9537    1.0000 </r>
       <r>  -31.0930    1.0000 </r>
       <r>  -31.0930    1.0000 </r>
       <r>  -31.0930    1.0000 </r>
       <r>  -17.5837    1.0000 </r>
       <r>  -15.1387    1.0000 </r>
       <r>  -15.1387    1.0000 </r>
       <r>  -15.1387    1.0000 </r>
       <r>  -11.4799    1.0000 </r>
       <r>  -11.4799    1.0000 </r>
       <r>  -10.9914    1.0000 </r>
       <r>  -10.9914    1.0000 </r>
       <r>  -10.9914    1.0000 </r>
       <r>   -9.7735    1.0000 </r>
       <r>   -9.7735    1.0000 </r>
       <r>   -9.7735    1.0000 </r>
       <r>   -0.3644    0.0000 </r>
       <r>    1.9329    0.0000 </r>
       <r>    1.9329    0.0000 </r>
       <r>    1.9329    0.0000 </r>
      </set>
     </set>
    </set>
   </array>
  </eigenvalues>
  <separator name="orbital magnetization" >
   <v name="MAGDIPOLOUT">      0.00000000      0.00000000      0.00000000</v>
  </separator>
  <dos>
   <i name="efermi">     -8.82662804 </i>
   <total>
    <array>
     <dimension dim="1">gridpoints</dimension>
     <dimension dim="2">spin</dimension>
     <field>energy</field>
     <field>total</field>
     <field>integrated</field>
     <set>
      <set comment="spin 1">
       <r>   -35.9537     0.0000     0.0000 </r>
       <r>   -35.8207     0.0000     0.0000 </r>
       <r>   -35.6878     0.0000     0.0000 </r>
       <r>   -35.5548     0.0000     0.0000 </r>
       <r>   -35.4218     0.0000     0.0000 </r>
       <r>   -35.2889     0.0000     0.0000 </r>
       <r>   -35.1559     0.0000     0.0000 </r>
       <r>   -35.0230     0.0000     0.0000 </r>
       <r>   -34.8900     0.0000     0.0000 </r>
       <r>   -34.7571     0.0000     0.0000 </r>
       <r>   -34.6241     0.0000     0.0000 </r>
       <r>   -34.4912     0.0011     0.0001 </r>
       <r>   -34.3582     0.0307     0.0042 </r>
       <r>   -34.2253     0.3804     0.0548 </r>
       <r>   -34.0923     2.0470     0.3270 </r>
       <r>   -33.9593     4.8215     0.9680 </r>
       <r>   -33.8264     4.9933     1.6319 </r>
       <r>   -33.6934     2.2741     1.9343 </r>
       <r>   -33.5605     0.4536     1.9946 </r>
       <r>   -33.4275     0.0393     1.9998 </r>
       <r>   -33.2946     0.0015     2.0000 </r>
       <r>   -33.1616     0.0000     2.0000 </r>
       <r>   -33.0287     0.0000     2.0000 </r>
       <r>   -32.8957     0.0000     2.0000 </r>
       <r>   -32.7627     0.0000     2.0000 </r>
       <r>   -32.6298     0.0000     2.0000 </r>
       <r>   -32.4968     0.0000     2.0000 </r>
       <r>   -32.3639     0.0000     2.0000 </r>
       <r>   -32.2309     0.0000     2.0000 </r>
       <r>   -32.0980     0.0000     2.0000 </r>
       <r>   -31.9650     0.0000     2.0000 </r>
       <r>   -31.8321     0.0000     2.0000 </r>
       <r>   -31.6991     0.0004     2.0001 </r>
       <r>   -31.5661     0.0181     2.0025 </r>
       <r>   -31.4332     0.3458     2.0484 </r>
       <r>   -31.3002     2.8577     2.4284 </r>
       <r>   -31.1673    10.3018     3.7981 </r>
       <r>   -31.0343    16.2994     5.9652 </r>
       <r>   -30.9014    11.3462     7.4737 </r>
       <r>   -30.7684     3.4682     7.9348 </r>
       <r>   -30.6355     0.4629     7.9964 </r>
       <r>   -30.5025     0.0268     7.9999 </r>
       <r>   -30.3695     0.0007     8.0000 </r>
       <r>   -30.2366     0.0000     8.0000 </r>
       <r>   -30.1036     0.0000     8.0000 </r>
       <r>   -29.9707     0.0000     8.0000 </r>
       <r>   -29.8377     0.0000     8.0000 </r>
       <r>   -29.7048     0.0000     8.0000 </r>
       <r>   -29.5718     0.0000     8.0000 </r>
       <r>   -29.4389     0.0000     8.0000 </r>
       <r>   -29.3059     0.0000     8.0000 </r>
       <r>   -29.1729     0.0000     8.0000 </r>
       <r>   -29.0400     0.0000     8.0000 </r>
       <r>   -28.9070     0.0000     8.0000 </r>
       <r>   -28.7741     0.0000     8.0000 </r>
       <r>   -28.6411     0.0000     8.0000 </r>
       <r>   -28.5082     0.0000     8.0000 </r>
       <r>   -28.3752     0.0000     8.0000 </r>
       <r>   -28.2423     0.0000     8.0000 </r>
       <r>   -28.1093     0.0000     8.0000 </r>
       <r>   -27.9763     0.0000     8.0000 </r>
       <r>   -27.8434     0.0000     8.0000 </r>
       <r>   -27.7104     0.0000     8.0000 </r>
       <r>   -27.5775     0.0000     8.0000 </r>
       <r>   -27.4445     0.0000     8.0000 </r>
       <r>   -27.3116     0.0000     8.0000 </r>
       <r>   -27.1786     0.0000     8.0000 </r>
       <r>   -27.0457     0.0000     8.0000 </r>
       <r>   -26.9127     0.0000     8.0000 </r>
       <r>   -26.7798     0.0000     8.0000 </r>
       <r>   -26.6468     0.0000     8.0000 </r>
       <r>   -26.5138     0.0000     8.0000 </r>
       <r>   -26.3809     0.0000     8.0000 </r>
       <r>   -26.2479     0.0000     8.0000 </r>
       <r>   -26.1150     0.0000     8.0000 </r>
       <r>   -25.9820     0.0000     8.0000 </r>
       <r>   -25.8491     0.0000     8.0000 </r>
       <r>   -25.7161     0.0000     8.0000 </r>
       <r>   -25.5832     0.0000     8.0000 </r>
       <r>   -25.4502     0.0000     8.0000 </r>
       <r>   -25.3172     0.0000     8.0000 </r>
       <r>   -25.1843     0.0000     8.0000 </r>
       <r>   -25.0513     0.0000     8.0000 </r>
       <r>   -24.9184     0.0000     8.0000 </r>
       <r>   -24.7854     0.0000     8.0000 </r>
       <r>   -24.6525     0.0000     8.0000 </r>
       <r>   -24.5195     0.0000     8.0000 </r>
       <r>   -24.3866     0.0000     8.0000 </r>
       <r>   -24.2536     0.0000     8.0000 </r>
       <r>   -24.1206     0.0000     8.0000 </r>
       <r>   -23.9877     0.0000     8.0000 </r>
       <r>   -23.8547     0.0000     8.0000 </r>
       <r>   -23.7218     0.0000     8.0000 </r>
       <r>   -23.5888     0.0000     8.0000 </r>
       <r>   -23.4559     0.0000     8.0000 </r>
       <r>   -23.3229     0.0000     8.0000 </r>
       <r>   -23.1900     0.0000     8.0000 </r>
       <r>   -23.0570     0.0000     8.0000 </r>
       <r>   -22.9240     0.0000     8.0000 </r>
       <r>   -22.7911     0.0000     8.0000 </r>
       <r>   -22.6581     0.0000     8.0000 </r>
       <r>   -22.5252     0.0000     8.0000 </r>
       <r>   -22.3922     0.0000     8.0000 </r>
       <r>   -22.2593     0.0000     8.0000 </r>
       <r>   -22.1263     0.0000     8.0000 </r>
       <r>   -21.9934     0.0000     8.0000 </r>
       <r>   -21.8604     0.0000     8.0000 </r>
       <r>   -21.7274     0.0000     8.0000 </r>
       <r>   -21.5945     0.0000     8.0000 </r>
       <r>   -21.4615     0.0000     8.0000 </r>
       <r>   -21.3286     0.0000     8.0000 </r>
       <r>   -21.1956     0.0000     8.0000 </r>
       <r>   -21.0627     0.0000     8.0000 </r>
       <r>   -20.9297     0.0000     8.0000 </r>
       <r>   -20.7968     0.0000     8.0000 </r>
       <r>   -20.6638     0.0000     8.0000 </r>
       <r>   -20.5309     0.0000     8.0000 </r>
       <r>   -20.3979     0.0000     8.0000 </r>
       <r>   -20.2649     0.0000     8.0000 </r>
       <r>   -20.1320     0.0000     8.0000 </r>
       <r>   -19.9990     0.0000     8.0000 </r>
       <r>   -19.8661     0.0000     8.0000 </r>
       <r>   -19.7331     0.0000     8.0000 </r>
       <r>   -19.6002     0.0000     8.0000 </r>
       <r>   -19.4672     0.0000     8.0000 </r>
       <r>   -19.3343     0.0000     8.0000 </r>
       <r>   -19.2013     0.0000     8.0000 </r>
       <r>   -19.0683     0.0000     8.0000 </r>
       <r>   -18.9354     0.0000     8.0000 </r>
       <r>   -18.8024     0.0000     8.0000 </r>
       <r>   -18.6695     0.0000     8.0000 </r>
       <r>   -18.5365     0.0000     8.0000 </r>
       <r>   -18.4036     0.0000     8.0000 </r>
       <r>   -18.2706     0.0000     8.0000 </r>
       <r>   -18.1377     0.0007     8.0001 </r>
       <r>   -18.0047     0.0212     8.0029 </r>
       <r>   -17.8717     0.2914     8.0417 </r>
       <r>   -17.7388     1.7380     8.2727 </r>
       <r>   -17.6058     4.5338     8.8755 </r>
       <r>   -17.4729     5.1983     9.5667 </r>
       <r>   -17.3399     2.6216     9.9152 </r>
       <r>   -17.2070     0.5795     9.9923 </r>
       <r>   -17.0740     0.0558     9.9997 </r>
       <r>   -16.9411     0.0023    10.0000 </r>
       <r>   -16.8081     0.0000    10.0000 </r>
       <r>   -16.6751     0.0000    10.0000 </r>
       <r>   -16.5422     0.0000    10.0000 </r>
       <r>   -16.4092     0.0000    10.0000 </r>
       <r>   -16.2763     0.0000    10.0000 </r>
       <r>   -16.1433     0.0000    10.0000 </r>
       <r>   -16.0104     0.0000    10.0000 </r>
       <r>   -15.8774     0.0000    10.0000 </r>
       <r>   -15.7445     0.0004    10.0001 </r>
       <r>   -15.6115     0.0183    10.0025 </r>
       <r>   -15.4785     0.3479    10.0487 </r>
       <r>   -15.3456     2.8694    10.4302 </r>
       <r>   -15.2126    10.3234    11.8028 </r>
       <r>   -15.0797    16.3012    13.9701 </r>
       <r>   -14.9467    11.3251    15.4759 </r>
       <r>   -14.8138     3.4549    15.9352 </r>
       <r>   -14.6808     0.4602    15.9964 </r>
       <r>   -14.5479     0.0265    15.9999 </r>
       <r>   -14.4149     0.0007    16.0000 </r>
       <r>   -14.2820     0.0000    16.0000 </r>
       <r>   -14.1490     0.0000    16.0000 </r>
       <r>   -14.0160     0.0000    16.0000 </r>
       <r>   -13.8831     0.0000    16.0000 </r>
       <r>   -13.7501     0.0000    16.0000 </r>
       <r>   -13.6172     0.0000    16.0000 </r>
       <r>   -13.4842     0.0000    16.0000 </r>
       <r>   -13.3513     0.0000    16.0000 </r>
       <r>   -13.2183     0.0000    16.0000 </r>
       <r>   -13.0854     0.0000    16.0000 </r>
       <r>   -12.9524     0.0000    16.0000 </r>
       <r>   -12.8194     0.0000    16.0000 </r>
       <r>   -12.6865     0.0000    16.0000 </r>
       <r>   -12.5535     0.0000    16.0000 </r>
       <r>   -12.4206     0.0000    16.0000 </r>
       <r>   -12.2876     0.0000    16.0000 </r>
       <r>   -12.1547     0.0000    16.0000 </r>
       <r>   -12.0217     0.0019    16.0003 </r>
       <r>   -11.8888     0.0558    16.0077 </r>
       <r>   -11.7558     0.7099    16.1021 </r>
       <r>   -11.6228     3.9253    16.6240 </r>
       <r>   -11.4899     9.5081    17.8881 </r>
       <r>   -11.3569    10.3163    19.2597 </r>
       <r>   -11.2240     6.7665    20.1594 </r>
       <r>   -11.0910     9.5684    21.4315 </r>
       <r>   -10.9581    15.9979    23.5585 </r>
       <r>   -10.8251    12.9552    25.2810 </r>
       <r>   -10.6922     4.6328    25.8970 </r>
       <r>   -10.5592     0.7244    25.9933 </r>
       <r>   -10.4262     0.0492    25.9998 </r>
       <r>   -10.2933     0.0067    26.0007 </r>
       <r>   -10.1603     0.1353    26.0187 </r>
       <r>   -10.0274     1.4979    26.2178 </r>
       <r>    -9.8944     7.2176    27.1775 </r>
       <r>    -9.7615    15.2367    29.2033 </r>
       <r>    -9.6285    14.1466    31.0841 </r>
       <r>    -9.4956     5.7743    31.8519 </r>
       <r>    -9.3626     1.0315    31.9890 </r>
       <r>    -9.2296     0.0800    31.9996 </r>
       <r>    -9.0967     0.0027    32.0000 </r>
       <r>    -8.9637     0.0000    32.0000 </r>
       <r>    -8.8308     0.0000    32.0000 </r>
       <r>    -8.6978     0.0000    32.0000 </r>
       <r>    -8.5649     0.0000    32.0000 </r>
       <r>    -8.4319     0.0000    32.0000 </r>
       <r>    -8.2990     0.0000    32.0000 </r>
       <r>    -8.1660     0.0000    32.0000 </r>
       <r>    -8.0331     0.0000    32.0000 </r>
       <r>    -7.9001     0.0000    32.0000 </r>
       <r>    -7.7671     0.0000    32.0000 </r>
       <r>    -7.6342     0.0000    32.0000 </r>
       <r>    -7.5012     0.0000    32.0000 </r>
       <r>    -7.3683     0.0000    32.0000 </r>
       <r>    -7.2353     0.0000    32.0000 </r>
       <r>    -7.1024     0.0000    32.0000 </r>
       <r>    -6.9694     0.0000    32.0000 </r>
       <r>    -6.8365     0.0000    32.0000 </r>
       <r>    -6.7035     0.0000    32.0000 </r>
       <r>    -6.5705     0.0000    32.0000 </r>
       <r>    -6.4376     0.0000    32.0000 </r>
       <r>    -6.3046     0.0000    32.0000 </r>
       <r>    -6.1717     0.0000    32.0000 </r>
       <r>    -6.0387     0.0000    32.0000 </r>
       <r>    -5.9058     0.0000    32.0000 </r>
       <r>    -5.7728     0.0000    32.0000 </r>
       <r>    -5.6399     0.0000    32.0000 </r>
       <r>    -5.5069     0.0000    32.0000 </r>
       <r>    -5.3739     0.0000    32.0000 </r>
       <r>    -5.2410     0.0000    32.0000 </r>
       <r>    -5.1080     0.0000    32.0000 </r>
       <r>    -4.9751     0.0000    32.0000 </r>
       <r>    -4.8421     0.0000    32.0000 </r>
       <r>    -4.7092     0.0000    32.0000 </r>
       <r>    -4.5762     0.0000    32.0000 </r>
       <r>    -4.4433     0.0000    32.0000 </r>
       <r>    -4.3103     0.0000    32.0000 </r>
       <r>    -4.1773     0.0000    32.0000 </r>
       <r>    -4.0444     0.0000    32.0000 </r>
       <r>    -3.9114     0.0000    32.0000 </r>
       <r>    -3.7785     0.0000    32.0000 </r>
       <r>    -3.6455     0.0000    32.0000 </r>
       <r>    -3.5126     0.0000    32.0000 </r>
       <r>    -3.3796     0.0000    32.0000 </r>
       <r>    -3.2467     0.0000    32.0000 </r>
       <r>    -3.1137     0.0000    32.0000 </r>
       <r>    -2.9807     0.0000    32.0000 </r>
       <r>    -2.8478     0.0000    32.0000 </r>
       <r>    -2.7148     0.0000    32.0000 </r>
       <r>    -2.5819     0.0000    32.0000 </r>
       <r>    -2.4489     0.0000    32.0000 </r>
       <r>    -2.3160     0.0000    32.0000 </r>
       <r>    -2.1830     0.0000    32.0000 </r>
       <r>    -2.0501     0.0000    32.0000 </r>
       <r>    -1.9171     0.0000    32.0000 </r>
       <r>    -1.7842     0.0000    32.0000 </r>
       <r>    -1.6512     0.0000    32.0000 </r>
       <r>    -1.5182     0.0000    32.0000 </r>
       <r>    -1.3853     0.0000    32.0000 </r>
       <r>    -1.2523     0.0000    32.0000 </r>
       <r>    -1.1194     0.0000    32.0000 </r>
       <r>    -0.9864     0.0001    32.0000 </r>
       <r>    -0.8535     0.0040    32.0005 </r>
       <r>    -0.7205     0.0847    32.0118 </r>
       <r>    -0.5876     0.7733    32.1146 </r>
       <r>    -0.4546     3.0770    32.5237 </r>
       <r>    -0.3216     5.3704    33.2377 </r>
       <r>    -0.1887     4.1236    33.7860 </r>
       <r>    -0.0557     1.3910    33.9709 </r>
       <r>     0.0772     0.2050    33.9982 </r>
       <r>     0.2102     0.0131    34.0000 </r>
       <r>     0.3431     0.0004    34.0000 </r>
       <r>     0.4761     0.0000    34.0000 </r>
       <r>     0.6090     0.0000    34.0000 </r>
       <r>     0.7420     0.0000    34.0000 </r>
       <r>     0.8750     0.0000    34.0000 </r>
       <r>     1.0079     0.0000    34.0000 </r>
       <r>     1.1409     0.0000    34.0000 </r>
       <r>     1.2738     0.0001    34.0000 </r>
       <r>     1.4068     0.0044    34.0006 </r>
       <r>     1.5397     0.1180    34.0163 </r>
       <r>     1.6727     1.3609    34.1972 </r>
       <r>     1.8056     6.8223    35.1043 </r>
       <r>     1.9386    14.9799    37.0959 </r>
       <r>     2.0716    14.4645    39.0191 </r>
       <r>     2.2045     6.1410    39.8356 </r>
       <r>     2.3375     1.1413    39.9873 </r>
       <r>     2.4704     0.0922    39.9996 </r>
       <r>     2.6034     0.0032    40.0000 </r>
       <r>     2.7363     0.0000    40.0000 </r>
       <r>     2.8693     0.0000    40.0000 </r>
       <r>     3.0022     0.0000    40.0000 </r>
       <r>     3.1352     0.0000    40.0000 </r>
       <r>     3.2682     0.0000    40.0000 </r>
       <r>     3.4011     0.0000    40.0000 </r>
       <r>     3.5341     0.0000    40.0000 </r>
       <r>     3.6670     0.0000    40.0000 </r>
       <r>     3.8000     0.0000    40.0000 </r>
       <r>     3.9329     0.0000    40.0000 </r>
      </set>
     </set>
    </array>
   </total>
  </dos>
 </calculation>
 <structure name="finalpos" >
  <crystal>
   <varray name="basis" >
    <v>       8.00000000       0.00000000       0.00000000 </v>
    <v>       0.00000000       8.00000000       0.00000000 </v>
    <v>       0.00000000       0.00000000       8.00000000 </v>
   </varray>
   <i name="volume">    512.00000000 </i>
   <varray name="rec_basis" >
    <v>       0.12500000       0.00000000       0.00000000 </v>
    <v>       0.00000000       0.12500000       0.00000000 </v>
    <v>       0.00000000       0.00000000       0.12500000 </v>
   </varray>
  </crystal>
  <varray name="positions" >
   <v>       0.00000000       0.00000000       0.00000000 </v>
   <v>       0.09703150       0.09703150       0.09703150 </v>
   <v>       0.90296850       0.90296850       0.09703150 </v>
   <v>       0.90296850       0.09703150       0.90296850 </v>
   <v>       0.09703150       0.90296850       0.90296850 </v>
  </varray>
 </structure>
</modeling>
