 running on    1 nodes
 distr:  one band on    1 nodes,    1 groups
 vasp.5.2.12 11Nov11 complex                                                    
  
 POSCAR found :  2 types and       4 ions
 LDA part: xc-table for Pade appr. of Perdew
 POSCAR, INCAR and KPOINTS ok, starting setup
 WARNING: small aliasing (wrap around) errors must be expected
 FFT: planning ...(           1 )
 WAVECAR not read
 entering main loop
       N       E                     dE             d eps       ncg     rms          rms(c)
DAV:   1     0.386913357247E+02    0.38691E+02   -0.24699E+03    18   0.550E+02
DAV:   2    -0.208039992666E+02   -0.59495E+02   -0.59449E+02    35   0.128E+02
DAV:   3    -0.263899199312E+02   -0.55859E+01   -0.55851E+01    36   0.467E+01
DAV:   4    -0.264272164250E+02   -0.37296E-01   -0.37294E-01    28   0.324E+00
DAV:   5    -0.264272962472E+02   -0.79822E-04   -0.79821E-04    20   0.173E-01    0.857E+00
DAV:   6    -0.235572522273E+02    0.28700E+01   -0.51210E+00    19   0.155E+01    0.383E+00
DAV:   7    -0.229692961855E+02    0.58796E+00   -0.25794E+00    28   0.103E+01    0.142E+00
DAV:   8    -0.229241575413E+02    0.45139E-01   -0.21627E-01    20   0.362E+00    0.486E-01
DAV:   9    -0.229136967697E+02    0.10461E-01   -0.27240E-02    28   0.118E+00    0.215E-01
DAV:  10    -0.229160428383E+02   -0.23461E-02   -0.18869E-02    18   0.818E-01    0.618E-02
DAV:  11    -0.229203584814E+02   -0.43156E-02   -0.18400E-03    19   0.304E-01    0.711E-02
DAV:  12    -0.229248339338E+02   -0.44755E-02   -0.14225E-03    19   0.265E-01    0.131E-02
DAV:  13    -0.229262516057E+02   -0.14177E-02   -0.27745E-04    19   0.116E-01    0.195E-02
DAV:  14    -0.229267952754E+02   -0.54367E-03   -0.15090E-04    18   0.797E-02    0.464E-03
DAV:  15    -0.229269189768E+02   -0.12370E-03   -0.18326E-05    19   0.291E-02    0.378E-03
DAV:  16    -0.229269334488E+02   -0.14472E-04   -0.14385E-06    19   0.717E-03
   1 F= -.22926933E+02 E0= -.22926933E+02  d E =-.229269E+02
 curvature:   0.00 expect dE= 0.000E+00 dE for cont linesearch  0.000E+00
 trial: gam= 0.00000 g(F)=  0.111E+00 g(S)=  0.000E+00 ort = 0.000E+00 (trialstep = 0.100E+01)
 search vector abs. value=  0.111E+00
 bond charge predicted
       N       E                     dE             d eps       ncg     rms          rms(c)
DAV:   1    -0.223976874110E+02    0.52923E+00   -0.19264E+01    19   0.407E+01    0.183E+00
DAV:   2    -0.223044347069E+02    0.93253E-01   -0.27289E-01    26   0.520E+00    0.935E-01
DAV:   3    -0.222847442627E+02    0.19690E-01   -0.21228E-01    27   0.340E+00    0.304E-01
DAV:   4    -0.222814660641E+02    0.32782E-02   -0.17095E-02    18   0.969E-01    0.117E-01
DAV:   5    -0.222815168658E+02   -0.50802E-04   -0.12788E-03    18   0.275E-01    0.235E-02
DAV:   6    -0.222815975211E+02   -0.80655E-04   -0.23860E-04    19   0.107E-01
   2 F= -.22281598E+02 E0= -.22281598E+02  d E =0.645336E+00
 trial-energy change:    0.645336  1 .order    0.701501   -0.110967    1.513969
 step:   0.0843(harm=  0.0683)  dis= 0.00430  next Energy=   -22.931644 (dE=-0.471E-02)
 bond charge predicted
       N       E                     dE             d eps       ncg     rms          rms(c)
DAV:   1    -0.230301577243E+02   -0.74864E+00   -0.16503E+01    18   0.385E+01    0.164E+00
DAV:   2    -0.229496434827E+02    0.80514E-01   -0.21397E-01    26   0.459E+00    0.853E-01
DAV:   3    -0.229321788919E+02    0.17465E-01   -0.13882E-01    18   0.280E+00    0.209E-01
DAV:   4    -0.229323708500E+02   -0.19196E-03   -0.26909E-02    18   0.121E+00    0.179E-01
DAV:   5    -0.229313727753E+02    0.99807E-03   -0.51582E-03    18   0.593E-01    0.185E-02
DAV:   6    -0.229314375324E+02   -0.64757E-04   -0.32441E-04    19   0.170E-01
   3 F= -.22931438E+02 E0= -.22931438E+02  d E =-.450408E-02
 curvature:  -0.03 expect dE=-0.195E-05 dE for cont linesearch -0.103E-06
 trial: gam= 0.00572 g(F)=  0.572E-04 g(S)=  0.000E+00 ort =-0.578E-03 (trialstep = 0.817E+00)
 search vector abs. value=  0.542E-04
 reached required accuracy - stopping structural energy minimisation
 writing wavefunctions
NPROCS =  1
