   4   4   0   0
  0.1280000E+03  0.8000000E-09  0.8000000E-09  0.8000000E-09  0.5000000E-15
  1.000000000000000E-004
  CAR 
 unknown system                          
      3.05935772    -20.27089689  301     -5.88375466      1.00000000
    -20.271  0.0000E+00  0.0000E+00
    -20.193  0.0000E+00  0.0000E+00
    -20.115  0.0000E+00  0.0000E+00
    -20.038  0.0000E+00  0.0000E+00
    -19.960  0.0000E+00  0.0000E+00
    -19.882  0.0000E+00  0.0000E+00
    -19.804  0.0000E+00  0.0000E+00
    -19.727  0.0000E+00  0.0000E+00
    -19.649  0.0000E+00  0.0000E+00
    -19.571  0.0000E+00  0.0000E+00
    -19.493  0.0000E+00  0.0000E+00
    -19.415  0.7138E-15  0.5551E-16
    -19.338  0.5825E-13  0.4585E-14
    -19.260  0.3390E-11  0.2682E-12
    -19.182  0.1466E-09  0.1167E-10
    -19.104  0.4708E-08  0.3778E-09
    -19.027  0.1122E-06  0.9105E-08
    -18.949  0.1987E-05  0.1636E-06
    -18.871  0.2614E-04  0.2196E-05
    -18.793  0.2556E-03  0.2207E-04
    -18.716  0.1858E-02  0.1666E-03
    -18.638  0.1005E-01  0.9480E-03
    -18.560  0.4043E-01  0.4092E-02
    -18.482  0.1211E+00  0.1351E-01
    -18.404  0.2698E+00  0.3449E-01
    -18.327  0.4478E+00  0.6931E-01
    -18.249  0.5533E+00  0.1123E+00
    -18.171  0.5091E+00  0.1519E+00
    -18.093  0.3488E+00  0.1791E+00
    -18.016  0.1779E+00  0.1929E+00
    -17.938  0.6758E-01  0.1981E+00
    -17.860  0.1910E-01  0.1996E+00
    -17.782  0.4018E-02  0.1999E+00
    -17.705  0.6286E-03  0.2000E+00
    -17.627  0.7315E-04  0.2000E+00
    -17.549  0.6327E-05  0.2000E+00
    -17.471  0.4067E-06  0.2000E+00
    -17.393  0.1942E-07  0.2000E+00
    -17.316  0.6887E-09  0.2000E+00
    -17.238  0.1813E-10  0.2000E+00
    -17.160  0.3540E-12  0.2000E+00
    -17.082  0.5139E-14  0.2000E+00
    -17.005  0.0000E+00  0.2000E+00
    -16.927  0.0000E+00  0.2000E+00
    -16.849  0.0000E+00  0.2000E+00
    -16.771  0.0000E+00  0.2000E+00
    -16.694  0.0000E+00  0.2000E+00
    -16.616  0.0000E+00  0.2000E+00
    -16.538  0.0000E+00  0.2000E+00
    -16.460  0.0000E+00  0.2000E+00
    -16.383  0.0000E+00  0.2000E+00
    -16.305  0.0000E+00  0.2000E+00
    -16.227  0.0000E+00  0.2000E+00
    -16.149  0.0000E+00  0.2000E+00
    -16.071  0.0000E+00  0.2000E+00
    -15.994  0.0000E+00  0.2000E+00
    -15.916  0.0000E+00  0.2000E+00
    -15.838  0.0000E+00  0.2000E+00
    -15.760  0.0000E+00  0.2000E+00
    -15.683  0.0000E+00  0.2000E+00
    -15.605  0.0000E+00  0.2000E+00
    -15.527  0.0000E+00  0.2000E+00
    -15.449  0.0000E+00  0.2000E+00
    -15.372  0.0000E+00  0.2000E+00
    -15.294  0.0000E+00  0.2000E+00
    -15.216  0.0000E+00  0.2000E+00
    -15.138  0.0000E+00  0.2000E+00
    -15.060  0.0000E+00  0.2000E+00
    -14.983  0.0000E+00  0.2000E+00
    -14.905  0.0000E+00  0.2000E+00
    -14.827  0.2712E-14  0.2000E+00
    -14.749  0.1947E-12  0.2000E+00
    -14.672  0.1041E-10  0.2000E+00
    -14.594  0.4131E-09  0.2000E+00
    -14.516  0.1216E-07  0.2000E+00
    -14.438  0.2660E-06  0.2000E+00
    -14.361  0.4322E-05  0.2000E+00
    -14.283  0.5217E-04  0.2000E+00
    -14.205  0.4681E-03  0.2000E+00
    -14.127  0.3124E-02  0.2003E+00
    -14.049  0.1550E-01  0.2015E+00
    -13.972  0.5726E-01  0.2059E+00
    -13.894  0.1574E+00  0.2182E+00
    -13.816  0.3221E+00  0.2432E+00
    -13.738  0.4907E+00  0.2814E+00
    -13.661  0.5567E+00  0.3247E+00
    -13.583  0.4703E+00  0.3613E+00
    -13.505  0.2959E+00  0.3843E+00
    -13.427  0.1386E+00  0.3951E+00
    -13.350  0.4831E-01  0.3988E+00
    -13.272  0.1253E-01  0.3998E+00
    -13.194  0.2420E-02  0.4000E+00
    -13.116  0.3475E-03  0.4000E+00
    -13.039  0.3711E-04  0.4000E+00
    -12.961  0.2946E-05  0.4000E+00
    -12.883  0.1737E-06  0.4000E+00
    -12.805  0.7617E-08  0.4000E+00
    -12.727  0.5258E-09  0.4000E+00
    -12.650  0.8477E-08  0.4000E+00
    -12.572  0.1915E-06  0.4000E+00
    -12.494  0.3215E-05  0.4000E+00
    -12.416  0.4012E-04  0.4000E+00
    -12.339  0.3721E-03  0.4000E+00
    -12.261  0.2566E-02  0.4002E+00
    -12.183  0.1316E-01  0.4013E+00
    -12.105  0.5024E-01  0.4052E+00
    -12.028  0.1427E+00  0.4163E+00
    -11.950  0.3018E+00  0.4397E+00
    -11.872  0.4751E+00  0.4767E+00
    -11.794  0.5570E+00  0.5200E+00
    -11.716  0.4863E+00  0.5578E+00
    -11.639  0.3161E+00  0.5824E+00
    -11.561  0.1530E+00  0.5943E+00
    -11.483  0.5512E-01  0.5986E+00
    -11.405  0.1478E-01  0.5997E+00
    -11.328  0.2949E-02  0.6000E+00
    -11.250  0.4377E-03  0.6000E+00
    -11.172  0.4831E-04  0.6000E+00
    -11.094  0.3963E-05  0.6000E+00
    -11.017  0.2416E-06  0.6000E+00
    -10.939  0.1094E-07  0.6000E+00
    -10.861  0.3679E-09  0.6000E+00
    -10.783  0.9184E-11  0.6000E+00
    -10.705  0.1702E-12  0.6000E+00
    -10.628  0.2284E-14  0.6000E+00
    -10.550  0.0000E+00  0.6000E+00
    -10.472  0.0000E+00  0.6000E+00
    -10.394  0.0000E+00  0.6000E+00
    -10.317  0.0000E+00  0.6000E+00
    -10.239  0.0000E+00  0.6000E+00
    -10.161  0.0000E+00  0.6000E+00
    -10.083  0.0000E+00  0.6000E+00
    -10.006  0.0000E+00  0.6000E+00
     -9.928  0.0000E+00  0.6000E+00
     -9.850  0.0000E+00  0.6000E+00
     -9.772  0.0000E+00  0.6000E+00
     -9.695  0.0000E+00  0.6000E+00
     -9.617  0.0000E+00  0.6000E+00
     -9.539  0.0000E+00  0.6000E+00
     -9.461  0.0000E+00  0.6000E+00
     -9.383  0.0000E+00  0.6000E+00
     -9.306  0.0000E+00  0.6000E+00
     -9.228  0.0000E+00  0.6000E+00
     -9.150  0.0000E+00  0.6000E+00
     -9.072  0.0000E+00  0.6000E+00
     -8.995  0.0000E+00  0.6000E+00
     -8.917  0.0000E+00  0.6000E+00
     -8.839  0.0000E+00  0.6000E+00
     -8.761  0.0000E+00  0.6000E+00
     -8.684  0.0000E+00  0.6000E+00
     -8.606  0.0000E+00  0.6000E+00
     -8.528  0.0000E+00  0.6000E+00
     -8.450  0.0000E+00  0.6000E+00
     -8.372  0.0000E+00  0.6000E+00
     -8.295  0.0000E+00  0.6000E+00
     -8.217  0.0000E+00  0.6000E+00
     -8.139  0.0000E+00  0.6000E+00
     -8.061  0.0000E+00  0.6000E+00
     -7.984  0.4568E-14  0.6000E+00
     -7.906  0.3349E-12  0.6000E+00
     -7.828  0.1810E-10  0.6000E+00
     -7.750  0.7259E-09  0.6000E+00
     -7.673  0.2161E-07  0.6000E+00
     -7.595  0.4778E-06  0.6000E+00
     -7.517  0.7846E-05  0.6000E+00
     -7.439  0.9575E-04  0.6000E+00
     -7.361  0.8685E-03  0.6001E+00
     -7.284  0.5859E-02  0.6005E+00
     -7.206  0.2940E-01  0.6028E+00
     -7.128  0.1097E+00  0.6114E+00
     -7.050  0.3050E+00  0.6351E+00
     -6.973  0.6308E+00  0.6841E+00
     -6.895  0.9715E+00  0.7597E+00
     -6.817  0.1114E+01  0.8463E+00
     -6.739  0.9514E+00  0.9203E+00
     -6.662  0.6050E+00  0.9674E+00
     -6.584  0.2864E+00  0.9896E+00
     -6.506  0.1009E+00  0.9975E+00
     -6.428  0.2648E-01  0.9995E+00
     -6.351  0.5167E-02  0.9999E+00
     -6.273  0.7501E-03  0.1000E+01
     -6.195  0.8097E-04  0.1000E+01
     -6.117  0.6497E-05  0.1000E+01
     -6.039  0.3874E-06  0.1000E+01
     -5.962  0.1716E-07  0.1000E+01
     -5.884  0.5642E-09  0.1000E+01
     -5.806  0.1377E-10  0.1000E+01
     -5.728  0.2495E-12  0.1000E+01
     -5.651  0.3426E-14  0.1000E+01
     -5.573  0.0000E+00  0.1000E+01
     -5.495  0.0000E+00  0.1000E+01
     -5.417  0.0000E+00  0.1000E+01
     -5.340  0.0000E+00  0.1000E+01
     -5.262  0.0000E+00  0.1000E+01
     -5.184  0.0000E+00  0.1000E+01
     -5.106  0.0000E+00  0.1000E+01
     -5.028  0.0000E+00  0.1000E+01
     -4.951  0.0000E+00  0.1000E+01
     -4.873  0.0000E+00  0.1000E+01
     -4.795  0.0000E+00  0.1000E+01
     -4.717  0.0000E+00  0.1000E+01
     -4.640  0.0000E+00  0.1000E+01
     -4.562  0.0000E+00  0.1000E+01
     -4.484  0.0000E+00  0.1000E+01
     -4.406  0.0000E+00  0.1000E+01
     -4.329  0.0000E+00  0.1000E+01
     -4.251  0.0000E+00  0.1000E+01
     -4.173  0.0000E+00  0.1000E+01
     -4.095  0.0000E+00  0.1000E+01
     -4.017  0.0000E+00  0.1000E+01
     -3.940  0.0000E+00  0.1000E+01
     -3.862  0.0000E+00  0.1000E+01
     -3.784  0.0000E+00  0.1000E+01
     -3.706  0.0000E+00  0.1000E+01
     -3.629  0.0000E+00  0.1000E+01
     -3.551  0.0000E+00  0.1000E+01
     -3.473  0.0000E+00  0.1000E+01
     -3.395  0.0000E+00  0.1000E+01
     -3.318  0.0000E+00  0.1000E+01
     -3.240  0.0000E+00  0.1000E+01
     -3.162  0.0000E+00  0.1000E+01
     -3.084  0.0000E+00  0.1000E+01
     -3.007  0.0000E+00  0.1000E+01
     -2.929  0.0000E+00  0.1000E+01
     -2.851  0.0000E+00  0.1000E+01
     -2.773  0.0000E+00  0.1000E+01
     -2.695  0.0000E+00  0.1000E+01
     -2.618  0.0000E+00  0.1000E+01
     -2.540  0.0000E+00  0.1000E+01
     -2.462  0.0000E+00  0.1000E+01
     -2.384  0.0000E+00  0.1000E+01
     -2.307  0.0000E+00  0.1000E+01
     -2.229  0.0000E+00  0.1000E+01
     -2.151  0.0000E+00  0.1000E+01
     -2.073  0.0000E+00  0.1000E+01
     -1.996  0.0000E+00  0.1000E+01
     -1.918  0.0000E+00  0.1000E+01
     -1.840  0.0000E+00  0.1000E+01
     -1.762  0.0000E+00  0.1000E+01
     -1.684  0.0000E+00  0.1000E+01
     -1.607  0.0000E+00  0.1000E+01
     -1.529  0.5710E-15  0.1000E+01
     -1.451  0.4825E-13  0.1000E+01
     -1.373  0.2846E-11  0.1000E+01
     -1.296  0.1248E-09  0.1000E+01
     -1.218  0.4059E-08  0.1000E+01
     -1.140  0.9804E-07  0.1000E+01
     -1.062  0.1759E-05  0.1000E+01
     -0.985  0.2345E-04  0.1000E+01
     -0.907  0.2323E-03  0.1000E+01
     -0.829  0.1712E-02  0.1000E+01
     -0.751  0.9381E-02  0.1001E+01
     -0.673  0.3827E-01  0.1004E+01
     -0.596  0.1163E+00  0.1013E+01
     -0.518  0.2645E+00  0.1033E+01
     -0.440  0.4551E+00  0.1069E+01
     -0.362  0.6138E+00  0.1117E+01
     -0.285  0.7123E+00  0.1172E+01
     -0.207  0.8259E+00  0.1236E+01
     -0.129  0.1011E+01  0.1315E+01
     -0.051  0.1156E+01  0.1405E+01
      0.026  0.1081E+01  0.1489E+01
      0.104  0.7765E+00  0.1549E+01
      0.182  0.4192E+00  0.1582E+01
      0.260  0.1689E+00  0.1595E+01
      0.337  0.5072E-01  0.1599E+01
      0.415  0.1134E-01  0.1600E+01
      0.493  0.1957E-02  0.1600E+01
      0.571  0.8616E-03  0.1600E+01
      0.649  0.4039E-02  0.1600E+01
      0.726  0.1910E-01  0.1602E+01
      0.804  0.6758E-01  0.1607E+01
      0.882  0.1779E+00  0.1621E+01
      0.960  0.3488E+00  0.1648E+01
      1.037  0.5091E+00  0.1688E+01
      1.115  0.5533E+00  0.1731E+01
      1.193  0.4478E+00  0.1766E+01
      1.271  0.2698E+00  0.1786E+01
      1.348  0.1211E+00  0.1796E+01
      1.426  0.4043E-01  0.1799E+01
      1.504  0.1005E-01  0.1800E+01
      1.582  0.1858E-02  0.1800E+01
      1.660  0.2556E-03  0.1800E+01
      1.737  0.2614E-04  0.1800E+01
      1.815  0.1987E-05  0.1800E+01
      1.893  0.1122E-06  0.1800E+01
      1.971  0.4708E-08  0.1800E+01
      2.048  0.1466E-09  0.1800E+01
      2.126  0.3390E-11  0.1800E+01
      2.204  0.5825E-13  0.1800E+01
      2.282  0.5710E-15  0.1800E+01
      2.359  0.0000E+00  0.1800E+01
      2.437  0.0000E+00  0.1800E+01
      2.515  0.0000E+00  0.1800E+01
      2.593  0.0000E+00  0.1800E+01
      2.671  0.0000E+00  0.1800E+01
      2.748  0.0000E+00  0.1800E+01
      2.826  0.0000E+00  0.1800E+01
      2.904  0.0000E+00  0.1800E+01
      2.982  0.0000E+00  0.1800E+01
      3.059  0.0000E+00  0.1800E+01
