    4    4   10    1
  0.1280000E+03  0.8000000E-09  0.8000000E-09  0.8000000E-09  0.5000000E-15
  1.000000000000000E-004
  CAR 
 unknown system                          
   10    1    9
 
  0.0000000E+00  0.0000000E+00  0.0000000E+00  0.1000000E+01
   1      -18.270897
   2      -13.705144
   3      -11.830064
   4       -6.858758
   5       -6.858758
   6       -0.380902
   7       -0.057349
   8       -0.057349
   9        1.059358
