 vasp.5.2.12 11Nov11 complex                                                    
  
 executed on             LinuxIFC date 2012.11.03  02:06:34
 running on    1 nodes
 distr:  one band on    1 nodes,    1 groups


--------------------------------------------------------------------------------------------------------


 INCAR:
 POTCAR:   PAW_PBE H 15Jun2001                    
 POTCAR:   PAW_PBE C 08Apr2002                    
 POTCAR:   PAW_PBE H 15Jun2001                    
   VRHFIN =H: ultrasoft test                                                    
   LEXCH  = PE                                                                  
   EATOM  =    12.4884 eV,     .9179 Ry                                         
                                                                                
   TITEL  = PAW_PBE H 15Jun2001                                                 
   LULTRA =        F    use ultrasoft PP ?                                      
   IUNSCR =        0    unscreen: 0-lin 1-nonlin 2-no                           
   RPACOR =     .000    partial core radius                                     
   POMASS =    1.000; ZVAL   =    1.000    mass and valenz                      
   RCORE  =    1.100    outmost cutoff radius                                   
   RWIGS  =     .700; RWIGS  =     .370    wigner-seitz radius (au A)           
   ENMAX  =  250.000; ENMIN  =  200.000 eV                                      
   RCLOC  =     .701    cutoff for local pot                                    
   LCOR   =        T    correct aug charges                                     
   LPAW   =        T    paw PP                                                  
   EAUG   =  400.000                                                            
   RMAX   =    2.174    core radius for proj-oper                               
   RAUG   =    1.200    factor for augmentation sphere                          
   RDEP   =    1.112    radius for radial grids                                 
   QCUT   =   -5.749; QGAM   =   11.498    optimization parameters              
                                                                                
   Description                                                                  
     l     E      TYP  RCUT    TYP  RCUT                                        
     0   .000     23  1.100                                                     
     0   .500     23  1.100                                                     
     1  -.300     23  1.100                                                     
  local pseudopotential read in
  atomic valenz-charges read in
  non local Contribution for L=           0  read in
    real space projection operators read in
  non local Contribution for L=           0  read in
    real space projection operators read in
  non local Contribution for L=           1  read in
    real space projection operators read in
    PAW grid and wavefunctions read in
 
   number of l-projection  operators is LMAX  =           3
   number of lm-projection operators is LMMAX =           5
 
 POTCAR:   PAW_PBE C 08Apr2002                    
   VRHFIN =C: s2p2                                                              
   LEXCH  = PE                                                                  
   EATOM  =   147.1560 eV,   10.8157 Ry                                         
                                                                                
   TITEL  = PAW_PBE C 08Apr2002                                                 
   LULTRA =        F    use ultrasoft PP ?                                      
   IUNSCR =        0    unscreen: 0-lin 1-nonlin 2-no                           
   RPACOR =     .000    partial core radius                                     
   POMASS =   12.011; ZVAL   =    4.000    mass and valenz                      
   RCORE  =    1.500    outmost cutoff radius                                   
   RWIGS  =    1.630; RWIGS  =     .863    wigner-seitz radius (au A)           
   ENMAX  =  400.000; ENMIN  =  300.000 eV                                      
   ICORE  =        2    local potential                                         
   LCOR   =        T    correct aug charges                                     
   LPAW   =        T    paw PP                                                  
   EAUG   =  644.873                                                            
   DEXC   =     .000                                                            
   RMAX   =    2.266    core radius for proj-oper                               
   RAUG   =    1.300    factor for augmentation sphere                          
   RDEP   =    1.501    radius for radial grids                                 
   RDEPT  =    1.300    core radius for aug-charge                              
   QCUT   =   -5.516; QGAM   =   11.032    optimization parameters              
                                                                                
   Description                                                                  
     l     E      TYP  RCUT    TYP  RCUT                                        
     0   .000     23  1.200                                                     
     0   .000     23  1.200                                                     
     1   .000     23  1.500                                                     
     1  2.500     23  1.500                                                     
     2   .000      7  1.500                                                     
  local pseudopotential read in
  atomic valenz-charges read in
  non local Contribution for L=           0  read in
    real space projection operators read in
  non local Contribution for L=           0  read in
    real space projection operators read in
  non local Contribution for L=           1  read in
    real space projection operators read in
  non local Contribution for L=           1  read in
    real space projection operators read in
    PAW grid and wavefunctions read in
 
   number of l-projection  operators is LMAX  =           4
   number of lm-projection operators is LMMAX =           8
 
 PAW_PBE H 15Jun2001                    :
 energy of atom  1       EATOM=  -12.4884
 kinetic energy error for atom=    0.0045 (will be added to EATOM!!)
 PAW_PBE C 08Apr2002                    :
 energy of atom  2       EATOM= -147.1560
 kinetic energy error for atom=    0.0116 (will be added to EATOM!!)
 
 
 POSCAR:  H  C                                   
  positions in cartesian coordinates
  No initial velocities read in
 exchange correlation table for  LEXCH =        8
   RHO(1)=    0.500       N(1)  =     2000
   RHO(2)=  100.500       N(2)  =     4000
 


--------------------------------------------------------------------------------------------------------


 ion  position               nearest neighbor table
   1  0.000  0.000  0.791-   4 1.07
   2  0.000  0.000  0.209-   3 1.07
   3  0.000  0.000  0.076-   2 1.07   4 1.22
   4  0.000  0.000  0.924-   1 1.07   3 1.22
 
  LATTYP: Found a simple cubic cell.
 ALAT       =     8.0000000000
  
  Lattice vectors:
  
 A1 = (   8.0000000000,   0.0000000000,   0.0000000000)
 A2 = (   0.0000000000,   8.0000000000,   0.0000000000)
 A3 = (   0.0000000000,   0.0000000000,   8.0000000000)
 Subroutine PRICEL returns:
 Original cell was already a primitive cell.
 

Analysis of symmetry for initial positions (statically):

 Routine SETGRP: Setting up the symmetry group for a 
 simple cubic supercell.


 Subroutine GETGRP returns: Found 16 space group operations
 (whereof 16 operations were pure point group operations)
 out of a pool of 48 trial point group operations.


The static configuration has the point symmetry D_4h.

Analysis of symmetry for dynamics (positions and initial velocities):

 Subroutine DYNSYM returns: Found 16 space group operations
 (whereof 16 operations were pure point group operations)
 out of a pool of 16 trial space group operations
 (whereof 16 operations were pure point group operations)
 and found also     1 'primitive' translations


The dynamic configuration has the point symmetry D_4h.
 
 
 KPOINTS: KPOINTS created by Atomic Simulation Env

Automatic generation of k-mesh.
 
 Subroutine IBZKPT returns following result:
 ===========================================
 
 Found      1 irreducible k-points:
 
 Following reciprocal coordinates:
            Coordinates               Weight
  0.000000  0.000000  0.000000      1.000000
 
 Following cartesian coordinates:
            Coordinates               Weight
  0.000000  0.000000  0.000000      1.000000
 


--------------------------------------------------------------------------------------------------------




 Dimension of arrays:
   k-points           NKPTS =      1   k-points in BZ     NKDIM =      1   number of bands    NBANDS=      9
   number of dos      NEDOS =    301   number of ions     NIONS =      4
   non local maximal  LDIM  =      4   non local SUM 2l+1 LMDIM =      8
   total plane-waves  NPLWV =  74088
   max r-space proj   IRMAX =      1   max aug-charges    IRDMAX=   1907
   dimension x,y,z NGX =    42 NGY =   42 NGZ =   42
   dimension x,y,z NGXF=    84 NGYF=   84 NGZF=   84
   support grid    NGXF=    84 NGYF=   84 NGZF=   84
   ions per type =               2   2
 NGX,Y,Z   is equivalent  to a cutoff of   8.73,  8.73,  8.73 a.u.
 NGXF,Y,Z  is equivalent  to a cutoff of  17.46, 17.46, 17.46 a.u.


 I would recommend the setting:
   dimension x,y,z NGX =    42 NGY =   42 NGZ =   42
 SYSTEM =  unknown system                          
 POSCAR =   H  C                                   

 Startparameter for this run:
   NWRITE =      2    write-flag & timer
   PREC   = normal    normal or accurate (medium, high low for compatibility)
   ISTART =      0    job   : 0-new  1-cont  2-samecut
   ICHARG =      2    charge: 1-file 2-atom 10-const
   ISPIN  =      1    spin polarized calculation?
   LNONCOLLINEAR =      F non collinear calculations
   LSORBIT =      F    spin-orbit coupling
   INIWAV =      1    electr: 0-lowe 1-rand  2-diag
   LASPH  =      F    aspherical Exc in radial PAW
   METAGGA=      F    non-selfconsistent MetaGGA calc.

 Electronic Relaxation 1
   ENCUT  =  450.0 eV  33.07 Ry    5.75 a.u.  13.84 13.84 13.84*2*pi/ulx,y,z
   ENINI  =  450.0     initial cutoff
   ENAUG  =  644.9 eV  augmentation charge cutoff
   NELM   =     60;   NELMIN=  2; NELMDL= -5     # of ELM steps 
   EDIFF  = 0.1E-03   stopping-criterion for ELM
   LREAL  =      F    real-space projection
   NLSPLINE    = F    spline interpolate recip. space projectors
   LCOMPAT=      F    compatible to vasp.4.4
   GGA_COMPAT  = T    GGA compatible to vasp.4.4-vasp.4.6
   LMAXPAW     = -100 max onsite density
   LMAXMIX     =    2 max onsite mixed and CHGCAR
   VOSKOWN=      0    Vosko Wilk Nusair interpolation
   ROPT   =    0.00000   0.00000
 Ionic relaxation
   EDIFFG = 0.1E-02   stopping-criterion for IOM
   NSW    =     10    number of steps for IOM
   NBLOCK =      1;   KBLOCK =     10    inner block; outer block 
   IBRION =      2    ionic relax: 0-MD 1-quasi-New 2-CG
   NFREE  =      1    steps in history (QN), initial steepest desc. (CG)
   ISIF   =      2    stress and relaxation
   IWAVPR =     11    prediction:  0-non 1-charg 2-wave 3-comb
   ISYM   =      2    0-nonsym 1-usesym 2-fastsym
   LCORR  =      T    Harris-Foulkes like correction to forces

   POTIM  = 0.5000    time-step for ionic-motion
   TEIN   =    0.0    initial temperature
   TEBEG  =    0.0;   TEEND  =   0.0 temperature during run
   SMASS  =  -3.00    Nose mass-parameter (am)
   estimated Nose-frequenzy (Omega)   =  0.10E-29 period in steps =****** mass=  -0.146E-26a.u.
   SCALEE = 1.0000    scale energy and forces
   NPACO  =    256;   APACO  = 16.0  distance and # of slots for P.C.
   PSTRESS=    0.0 pullay stress

  Mass of Ions in am
   POMASS =   1.00 12.01
  Ionic Valenz
   ZVAL   =   1.00  4.00
  Atomic Wigner-Seitz radii
   RWIGS  =  -1.00 -1.00
  virtual crystal weights 
   VCA    =   1.00  1.00
   NELECT =      10.0000    total number of electrons
   NUPDOWN=      -1.0000    fix difference up-down

 DOS related values:
   EMIN   =  10.00;   EMAX   =-10.00  energy-range for DOS
   EFERMI =   0.00
   ISMEAR =     0;   SIGMA  =   0.20  broadening in eV -4-tet -1-fermi 0-gaus

 Electronic relaxation 2 (details)
   IALGO  =     38    algorithm
   LDIAG  =      T    sub-space diagonalisation (order eigenvalues)
   LSUBROT=      T    optimize rotation matrix (better conditioning)
   TURBO    =      0    0=normal 1=particle mesh
   IRESTART =      0    0=no restart 2=restart with 2 vectors
   NREBOOT  =      0    no. of reboots
   NMIN     =      0    reboot dimension
   EREF     =   0.00    reference energy to select bands
   IMIX   =      4    mixing-type and parameters
     AMIX     =   0.40;   BMIX     =  1.00
     AMIX_MAG =   1.60;   BMIX_MAG =  1.00
     AMIN     =   0.10
     WC   =   100.;   INIMIX=   1;  MIXPRE=   1

 Intra band minimization:
   WEIMIN = 0.0010     energy-eigenvalue tresh-hold
   EBREAK =  0.28E-05  absolut break condition
   DEPER  =   0.30     relativ break condition  

   TIME   =   0.40     timestep for ELM

  volume/ion in A,a.u.               =     128.00       863.79
  Fermi-wavevector in a.u.,A,eV,Ry     =   0.440878  0.833138  2.644608  0.194373
  Thomas-Fermi vector in A             =   1.415836
 
 Write flags
   LWAVE  =      T    write WAVECAR
   LCHARG =      T    write CHGCAR
   LVTOT  =      F    write LOCPOT, total local potential
   LVHAR  =      F    write LOCPOT, Hartree potential only
   LELF   =      F    write electronic localiz. function (ELF)
   LORBIT =      0    0 simple, 1 ext, 2 COOP (PROOUT)


 Dipole corrections
   LMONO  =      F    monopole corrections only (constant potential shift)
   LDIPOL =      F    correct potential (dipole corrections)
   IDIPOL =      0    1-x, 2-y, 3-z, 4-all directions 
   EPSILON=  1.0000000 bulk dielectric constant

 Exchange correlation treatment:
   GGA     =    --    GGA type
   LEXCH   =     8    internal setting for exchange type
   VOSKOWN=      0    Vosko Wilk Nusair interpolation
   LHFCALC =     F    Hartree Fock is set to
   LHFONE  =     F    Hartree Fock one center treatment
   AEXX    =    0.0000 exact exchange contribution

 Linear response parameters
   LEPSILON=     F    determine dielectric tensor
   LRPA    =     F    only Hartree local field effects (RPA)
   LNABLA  =     F    use nabla operator in PAW spheres
   LVEL    =     F    velocity operator in full k-point grid
   LINTERFAST=   F  fast interpolation
   KINTER  =     0    interpolate to denser k-point grid
   CSHIFT  =0.1000    complex shift for real part using Kramers Kronig
   OMEGAMAX=  -1.0    maximum frequency
   RTIME   =    0.100 relaxation time in fs

 Orbital magnetization related:
   ORBITALMAG=     F  switch on orbital magnetization
   LCHIMAG   =     F  perturbation theory with respect to B field
   DQ        =  0.001000  dq finite difference perturbation B field



--------------------------------------------------------------------------------------------------------


 conjugate gradient relaxation of ions
 charge density and potential will be updated during run
 non-spin polarized calculation
 Variant of blocked Davidson
 Davidson routine will perform the subspace rotation
 perform sub-space diagonalisation
    after iterative eigenvector-optimisation
 modified Broyden-mixing scheme, WC =      100.0
 initial mixing is a Kerker type mixing with AMIX =  0.4000 and BMIX =      1.0000
 Hartree-type preconditioning will be used
 using additional bands            4
 reciprocal scheme for non local part
 calculate Harris-corrections to forces 
   (improved forces if not selfconsistent)
 use gradient corrections 
 use of overlap-Matrix (Vanderbilt PP)
 Gauss-broadening in eV      SIGMA  =   0.20


--------------------------------------------------------------------------------------------------------


  energy-cutoff  :      450.00
  volume of cell :      512.00
      direct lattice vectors                 reciprocal lattice vectors
     8.000000000  0.000000000  0.000000000     0.125000000  0.000000000  0.000000000
     0.000000000  8.000000000  0.000000000     0.000000000  0.125000000  0.000000000
     0.000000000  0.000000000  8.000000000     0.000000000  0.000000000  0.125000000

  length of vectors
     8.000000000  8.000000000  8.000000000     0.125000000  0.125000000  0.125000000


 
 k-points in units of 2pi/SCALE and weight: KPOINTS created by Atomic Simulation Env
   0.00000000  0.00000000  0.00000000       1.000
 
 k-points in reciprocal lattice and weights: KPOINTS created by Atomic Simulation Env
   0.00000000  0.00000000  0.00000000       1.000
 
 position of ions in fractional coordinates (direct lattice) 
   0.00000000  0.00000000  0.79075125
   0.00000000  0.00000000  0.20924875
   0.00000000  0.00000000  0.07601000
   0.00000000  0.00000000  0.92399000
 
 position of ions in cartesian coordinates  (Angst):
   0.00000000  0.00000000  6.32601000
   0.00000000  0.00000000  1.67399000
   0.00000000  0.00000000  0.60808000
   0.00000000  0.00000000  7.39192000
 


--------------------------------------------------------------------------------------------------------


 k-point  1 :  0.00000.00000.0000  plane waves:   11067

 maximum and minimum number of plane-waves per node :     11067    11067

 maximum number of plane-waves:     11067
 maximum index in each direction: 
   IXMAX=   13   IYMAX=   13   IZMAX=   13
   IXMIN=  -13   IYMIN=  -13   IZMIN=  -13

 WARNING: aliasing errors must be expected set NGX to  54 to avoid them
 WARNING: aliasing errors must be expected set NGY to  54 to avoid them
 WARNING: aliasing errors must be expected set NGZ to  54 to avoid them
 aliasing errors are usually negligible using standard VASP settings
 and one can safely disregard these warnings

 serial   3D FFT for wavefunctions
 parallel 3D FFT for charge:
    minimum data exchange during FFTs selected (reduces bandwidth)


 total amount of memory used by VASP on root node    91136. kBytes
========================================================================

   base      :      30000. kBytes
   nonl-proj :       2124. kBytes
   fftplans  :      20656. kBytes
   grid      :      36747. kBytes
   one-center:         12. kBytes
   wavefun   :       1597. kBytes
 
 Broyden mixing: mesh for mixing (old mesh)
   NGX = 27   NGY = 27   NGZ = 27
  (NGX  = 84   NGY  = 84   NGZ  = 84)
  gives a total of  19683 points

 initial charge density was supplied:
 charge density of overlapping atoms calculated
 number of electron      10.0000000 magnetization 
 keeping initial charge density in first step


--------------------------------------------------------------------------------------------------------


 Maximum index for augmentation-charges         1662 (set IRDMAX)


--------------------------------------------------------------------------------------------------------


 First call to EWALD:  gamma=   0.222
 Maximum number of real-space cells 3x 3x 3
 Maximum number of reciprocal cells 3x 3x 3

    FEWALD:  cpu time    0.00: real time    0.00


----------------------------------------- Iteration    1(   1)  ---------------------------------------


    POTLOK:  cpu time    0.95: real time    0.95
    SETDIJ:  cpu time    0.01: real time    0.01
     EDDAV:  cpu time    0.42: real time    0.42
       DOS:  cpu time    0.00: real time    0.00
    --------------------------------------------
      LOOP:  cpu time    1.38: real time    1.38

 eigenvalue-minimisations  :    18
 total energy-change (2. order) : 0.3869134E+02  (-0.2469912E+03)
 number of electron      10.0000000 magnetization 
 augmentation part       10.0000000 magnetization 

 Free energy of the ion-electron system (eV)
  ---------------------------------------------------
  alpha Z        PSCENC =         0.89086884
  Ewald energy   TEWEN  =       102.54077057
  -1/2 Hartree   DENC   =      -317.70358761
  -exchange  EXHF       =         0.00000000
  -V(xc)+E(xc)   XCENC  =        30.23698448
  PAW double counting   =        77.22553761      -79.54451240
  entropy T*S    EENTRO =         0.00000000
  eigenvalues    EBANDS =       -94.21127817
  atomic energy  EATOM  =       319.25655240
  ---------------------------------------------------
  free energy    TOTEN  =        38.69133572 eV

  energy without entropy =       38.69133572  energy(sigma->0) =       38.69133572


--------------------------------------------------------------------------------------------------------




----------------------------------------- Iteration    1(   2)  ---------------------------------------


     EDDAV:  cpu time    0.75: real time    0.75
       DOS:  cpu time    0.00: real time    0.00
    --------------------------------------------
      LOOP:  cpu time    0.75: real time    0.78

 eigenvalue-minimisations  :    35
 total energy-change (2. order) :-0.5949533E+02  (-0.5944851E+02)
 number of electron      10.0000000 magnetization 
 augmentation part       10.0000000 magnetization 

 Free energy of the ion-electron system (eV)
  ---------------------------------------------------
  alpha Z        PSCENC =         0.89086884
  Ewald energy   TEWEN  =       102.54077057
  -1/2 Hartree   DENC   =      -317.70358761
  -exchange  EXHF       =         0.00000000
  -V(xc)+E(xc)   XCENC  =        30.23698448
  PAW double counting   =        77.22553761      -79.54451240
  entropy T*S    EENTRO =         0.00000000
  eigenvalues    EBANDS =      -153.70661316
  atomic energy  EATOM  =       319.25655240
  ---------------------------------------------------
  free energy    TOTEN  =       -20.80399927 eV

  energy without entropy =      -20.80399927  energy(sigma->0) =      -20.80399927


--------------------------------------------------------------------------------------------------------




----------------------------------------- Iteration    1(   3)  ---------------------------------------


     EDDAV:  cpu time    0.76: real time    0.76
       DOS:  cpu time    0.00: real time    0.00
    --------------------------------------------
      LOOP:  cpu time    0.76: real time    0.78

 eigenvalue-minimisations  :    36
 total energy-change (2. order) :-0.5585921E+01  (-0.5585139E+01)
 number of electron      10.0000000 magnetization 
 augmentation part       10.0000000 magnetization 

 Free energy of the ion-electron system (eV)
  ---------------------------------------------------
  alpha Z        PSCENC =         0.89086884
  Ewald energy   TEWEN  =       102.54077057
  -1/2 Hartree   DENC   =      -317.70358761
  -exchange  EXHF       =         0.00000000
  -V(xc)+E(xc)   XCENC  =        30.23698448
  PAW double counting   =        77.22553761      -79.54451240
  entropy T*S    EENTRO =         0.00000000
  eigenvalues    EBANDS =      -159.29253382
  atomic energy  EATOM  =       319.25655240
  ---------------------------------------------------
  free energy    TOTEN  =       -26.38991993 eV

  energy without entropy =      -26.38991993  energy(sigma->0) =      -26.38991993


--------------------------------------------------------------------------------------------------------




----------------------------------------- Iteration    1(   4)  ---------------------------------------


     EDDAV:  cpu time    0.61: real time    0.61
       DOS:  cpu time    0.00: real time    0.00
    --------------------------------------------
      LOOP:  cpu time    0.61: real time    0.67

 eigenvalue-minimisations  :    28
 total energy-change (2. order) :-0.3729649E-01  (-0.3729419E-01)
 number of electron      10.0000000 magnetization 
 augmentation part       10.0000000 magnetization 

 Free energy of the ion-electron system (eV)
  ---------------------------------------------------
  alpha Z        PSCENC =         0.89086884
  Ewald energy   TEWEN  =       102.54077057
  -1/2 Hartree   DENC   =      -317.70358761
  -exchange  EXHF       =         0.00000000
  -V(xc)+E(xc)   XCENC  =        30.23698448
  PAW double counting   =        77.22553761      -79.54451240
  entropy T*S    EENTRO =         0.00000000
  eigenvalues    EBANDS =      -159.32983032
  atomic energy  EATOM  =       319.25655240
  ---------------------------------------------------
  free energy    TOTEN  =       -26.42721642 eV

  energy without entropy =      -26.42721642  energy(sigma->0) =      -26.42721642


--------------------------------------------------------------------------------------------------------




----------------------------------------- Iteration    1(   5)  ---------------------------------------


     EDDAV:  cpu time    0.47: real time    0.47
       DOS:  cpu time    0.00: real time    0.00
    CHARGE:  cpu time    0.14: real time    0.14
    MIXING:  cpu time    0.03: real time    0.03
    --------------------------------------------
      LOOP:  cpu time    0.64: real time    0.72

 eigenvalue-minimisations  :    20
 total energy-change (2. order) :-0.7982222E-04  (-0.7982136E-04)
 number of electron      10.0000001 magnetization 
 augmentation part        0.2610063 magnetization 

 Broyden mixing:
  rms(total) = 0.85694E+00    rms(broyden)= 0.85666E+00
  rms(prec ) = 0.13536E+01
  weight for this iteration     100.00

 Free energy of the ion-electron system (eV)
  ---------------------------------------------------
  alpha Z        PSCENC =         0.89086884
  Ewald energy   TEWEN  =       102.54077057
  -1/2 Hartree   DENC   =      -317.70358761
  -exchange  EXHF       =         0.00000000
  -V(xc)+E(xc)   XCENC  =        30.23698448
  PAW double counting   =        77.22553761      -79.54451240
  entropy T*S    EENTRO =         0.00000000
  eigenvalues    EBANDS =      -159.32991014
  atomic energy  EATOM  =       319.25655240
  ---------------------------------------------------
  free energy    TOTEN  =       -26.42729625 eV

  energy without entropy =      -26.42729625  energy(sigma->0) =      -26.42729625


--------------------------------------------------------------------------------------------------------




----------------------------------------- Iteration    1(   6)  ---------------------------------------


    POTLOK:  cpu time    1.01: real time    1.01
    SETDIJ:  cpu time    0.01: real time    0.01
     EDDAV:  cpu time    0.45: real time    0.45
       DOS:  cpu time    0.00: real time    0.00
    CHARGE:  cpu time    0.13: real time    0.13
    MIXING:  cpu time    0.03: real time    0.03
    --------------------------------------------
      LOOP:  cpu time    1.64: real time    1.77

 eigenvalue-minimisations  :    19
 total energy-change (2. order) : 0.2870044E+01  (-0.5121021E+00)
 number of electron      10.0000001 magnetization 
 augmentation part        0.2364492 magnetization 

 Broyden mixing:
  rms(total) = 0.38337E+00    rms(broyden)= 0.38333E+00
  rms(prec ) = 0.59707E+00
  weight for this iteration     100.00

 eigenvalues of (default mixing * dielectric matrix)
  average eigenvalue GAMMA=   1.6093
  1.6093

 Free energy of the ion-electron system (eV)
  ---------------------------------------------------
  alpha Z        PSCENC =         0.89086884
  Ewald energy   TEWEN  =       102.54077057
  -1/2 Hartree   DENC   =      -339.07629017
  -exchange  EXHF       =         0.00000000
  -V(xc)+E(xc)   XCENC  =        31.45448162
  PAW double counting   =       114.33098558     -116.93657739
  entropy T*S    EENTRO =         0.00000000
  eigenvalues    EBANDS =      -136.01804368
  atomic energy  EATOM  =       319.25655240
  ---------------------------------------------------
  free energy    TOTEN  =       -23.55725223 eV

  energy without entropy =      -23.55725223  energy(sigma->0) =      -23.55725223


--------------------------------------------------------------------------------------------------------




----------------------------------------- Iteration    1(   7)  ---------------------------------------


    POTLOK:  cpu time    1.00: real time    1.00
    SETDIJ:  cpu time    0.01: real time    0.01
     EDDAV:  cpu time    0.61: real time    0.61
       DOS:  cpu time    0.00: real time    0.00
    CHARGE:  cpu time    0.13: real time    0.13
    MIXING:  cpu time    0.03: real time    0.03
    --------------------------------------------
      LOOP:  cpu time    1.79: real time    1.82

 eigenvalue-minimisations  :    28
 total energy-change (2. order) : 0.5879560E+00  (-0.2579369E+00)
 number of electron      10.0000001 magnetization 
 augmentation part        0.2184231 magnetization 

 Broyden mixing:
  rms(total) = 0.14230E+00    rms(broyden)= 0.14216E+00
  rms(prec ) = 0.20302E+00
  weight for this iteration     100.00

 eigenvalues of (default mixing * dielectric matrix)
  average eigenvalue GAMMA=   2.1104
  1.7532  2.4676

 Free energy of the ion-electron system (eV)
  ---------------------------------------------------
  alpha Z        PSCENC =         0.89086884
  Ewald energy   TEWEN  =       102.54077057
  -1/2 Hartree   DENC   =      -355.46610009
  -exchange  EXHF       =         0.00000000
  -V(xc)+E(xc)   XCENC  =        32.46056051
  PAW double counting   =       144.97756189     -147.71211091
  entropy T*S    EENTRO =         0.00000000
  eigenvalues    EBANDS =      -119.91739940
  atomic energy  EATOM  =       319.25655240
  ---------------------------------------------------
  free energy    TOTEN  =       -22.96929619 eV

  energy without entropy =      -22.96929619  energy(sigma->0) =      -22.96929619


--------------------------------------------------------------------------------------------------------




----------------------------------------- Iteration    1(   8)  ---------------------------------------


    POTLOK:  cpu time    0.99: real time    0.99
    SETDIJ:  cpu time    0.01: real time    0.01
     EDDAV:  cpu time    0.47: real time    0.47
       DOS:  cpu time    0.00: real time    0.00
    CHARGE:  cpu time    0.13: real time    0.13
    MIXING:  cpu time    0.03: real time    0.03
    --------------------------------------------
      LOOP:  cpu time    1.64: real time    1.78

 eigenvalue-minimisations  :    20
 total energy-change (2. order) : 0.4513864E-01  (-0.2162677E-01)
 number of electron      10.0000001 magnetization 
 augmentation part        0.2210287 magnetization 

 Broyden mixing:
  rms(total) = 0.48625E-01    rms(broyden)= 0.48617E-01
  rms(prec ) = 0.91121E-01
  weight for this iteration     100.00

 eigenvalues of (default mixing * dielectric matrix)
  average eigenvalue GAMMA=   1.6025
  2.3471  0.9004  1.5598

 Free energy of the ion-electron system (eV)
  ---------------------------------------------------
  alpha Z        PSCENC =         0.89086884
  Ewald energy   TEWEN  =       102.54077057
  -1/2 Hartree   DENC   =      -357.21550517
  -exchange  EXHF       =         0.00000000
  -V(xc)+E(xc)   XCENC  =        32.64056813
  PAW double counting   =       147.48288387     -150.11736055
  entropy T*S    EENTRO =         0.00000000
  eigenvalues    EBANDS =      -118.40293563
  atomic energy  EATOM  =       319.25655240
  ---------------------------------------------------
  free energy    TOTEN  =       -22.92415754 eV

  energy without entropy =      -22.92415754  energy(sigma->0) =      -22.92415754


--------------------------------------------------------------------------------------------------------




----------------------------------------- Iteration    1(   9)  ---------------------------------------


    POTLOK:  cpu time    0.99: real time    0.99
    SETDIJ:  cpu time    0.01: real time    0.01
     EDDAV:  cpu time    0.61: real time    0.61
       DOS:  cpu time    0.00: real time    0.00
    CHARGE:  cpu time    0.13: real time    0.13
    MIXING:  cpu time    0.03: real time    0.03
    --------------------------------------------
      LOOP:  cpu time    1.78: real time    1.84

 eigenvalue-minimisations  :    28
 total energy-change (2. order) : 0.1046077E-01  (-0.2724034E-02)
 number of electron      10.0000001 magnetization 
 augmentation part        0.2194935 magnetization 

 Broyden mixing:
  rms(total) = 0.21541E-01    rms(broyden)= 0.21537E-01
  rms(prec ) = 0.51388E-01
  weight for this iteration     100.00

 eigenvalues of (default mixing * dielectric matrix)
  average eigenvalue GAMMA=   1.5961
  2.3811  1.7538  1.1248  1.1248

 Free energy of the ion-electron system (eV)
  ---------------------------------------------------
  alpha Z        PSCENC =         0.89086884
  Ewald energy   TEWEN  =       102.54077057
  -1/2 Hartree   DENC   =      -358.52200516
  -exchange  EXHF       =         0.00000000
  -V(xc)+E(xc)   XCENC  =        32.70249295
  PAW double counting   =       149.19548293     -151.85039032
  entropy T*S    EENTRO =         0.00000000
  eigenvalues    EBANDS =      -117.12746898
  atomic energy  EATOM  =       319.25655240
  ---------------------------------------------------
  free energy    TOTEN  =       -22.91369677 eV

  energy without entropy =      -22.91369677  energy(sigma->0) =      -22.91369677


--------------------------------------------------------------------------------------------------------




----------------------------------------- Iteration    1(  10)  ---------------------------------------


    POTLOK:  cpu time    0.97: real time    0.97
    SETDIJ:  cpu time    0.01: real time    0.01
     EDDAV:  cpu time    0.44: real time    0.44
       DOS:  cpu time    0.00: real time    0.00
    CHARGE:  cpu time    0.13: real time    0.13
    MIXING:  cpu time    0.03: real time    0.03
    --------------------------------------------
      LOOP:  cpu time    1.59: real time    1.67

 eigenvalue-minimisations  :    18
 total energy-change (2. order) :-0.2346069E-02  (-0.1886941E-02)
 number of electron      10.0000001 magnetization 
 augmentation part        0.2185218 magnetization 

 Broyden mixing:
  rms(total) = 0.61800E-02    rms(broyden)= 0.61632E-02
  rms(prec ) = 0.18404E-01
  weight for this iteration     100.00

 eigenvalues of (default mixing * dielectric matrix)
  average eigenvalue GAMMA=   1.8938
  3.5204  2.4040  1.4912  1.0268  1.0268

 Free energy of the ion-electron system (eV)
  ---------------------------------------------------
  alpha Z        PSCENC =         0.89086884
  Ewald energy   TEWEN  =       102.54077057
  -1/2 Hartree   DENC   =      -360.20208911
  -exchange  EXHF       =         0.00000000
  -V(xc)+E(xc)   XCENC  =        32.76251010
  PAW double counting   =       148.90867403     -151.57387589
  entropy T*S    EENTRO =         0.00000000
  eigenvalues    EBANDS =      -115.49945378
  atomic energy  EATOM  =       319.25655240
  ---------------------------------------------------
  free energy    TOTEN  =       -22.91604284 eV

  energy without entropy =      -22.91604284  energy(sigma->0) =      -22.91604284


--------------------------------------------------------------------------------------------------------




----------------------------------------- Iteration    1(  11)  ---------------------------------------


    POTLOK:  cpu time    0.96: real time    0.96
    SETDIJ:  cpu time    0.01: real time    0.01
     EDDAV:  cpu time    0.45: real time    0.45
       DOS:  cpu time    0.00: real time    0.00
    CHARGE:  cpu time    0.13: real time    0.13
    MIXING:  cpu time    0.03: real time    0.04
    --------------------------------------------
      LOOP:  cpu time    1.60: real time    1.65

 eigenvalue-minimisations  :    19
 total energy-change (2. order) :-0.4315643E-02  (-0.1840019E-03)
 number of electron      10.0000001 magnetization 
 augmentation part        0.2183578 magnetization 

 Broyden mixing:
  rms(total) = 0.71084E-02    rms(broyden)= 0.71057E-02
  rms(prec ) = 0.13357E-01
  weight for this iteration     100.00

 eigenvalues of (default mixing * dielectric matrix)
  average eigenvalue GAMMA=   2.0016
  4.0888  2.3287  2.1175  1.2560  1.2560  0.9626

 Free energy of the ion-electron system (eV)
  ---------------------------------------------------
  alpha Z        PSCENC =         0.89086884
  Ewald energy   TEWEN  =       102.54077057
  -1/2 Hartree   DENC   =      -360.84468144
  -exchange  EXHF       =         0.00000000
  -V(xc)+E(xc)   XCENC  =        32.78315795
  PAW double counting   =       148.55636009     -151.22254058
  entropy T*S    EENTRO =         0.00000000
  eigenvalues    EBANDS =      -114.88084632
  atomic energy  EATOM  =       319.25655240
  ---------------------------------------------------
  free energy    TOTEN  =       -22.92035848 eV

  energy without entropy =      -22.92035848  energy(sigma->0) =      -22.92035848


--------------------------------------------------------------------------------------------------------




----------------------------------------- Iteration    1(  12)  ---------------------------------------


    POTLOK:  cpu time    0.96: real time    0.96
    SETDIJ:  cpu time    0.01: real time    0.01
     EDDAV:  cpu time    0.45: real time    0.45
       DOS:  cpu time    0.00: real time    0.00
    CHARGE:  cpu time    0.13: real time    0.13
    MIXING:  cpu time    0.04: real time    0.04
    --------------------------------------------
      LOOP:  cpu time    1.60: real time    1.90

 eigenvalue-minimisations  :    19
 total energy-change (2. order) :-0.4475452E-02  (-0.1422500E-03)
 number of electron      10.0000001 magnetization 
 augmentation part        0.2184563 magnetization 

 Broyden mixing:
  rms(total) = 0.13101E-02    rms(broyden)= 0.13091E-02
  rms(prec ) = 0.34736E-02
  weight for this iteration     100.00

 eigenvalues of (default mixing * dielectric matrix)
  average eigenvalue GAMMA=   2.1010
  4.8308  2.8571  2.3203  1.4529  0.9678  1.1392  1.1392

 Free energy of the ion-electron system (eV)
  ---------------------------------------------------
  alpha Z        PSCENC =         0.89086884
  Ewald energy   TEWEN  =       102.54077057
  -1/2 Hartree   DENC   =      -360.68185556
  -exchange  EXHF       =         0.00000000
  -V(xc)+E(xc)   XCENC  =        32.77086157
  PAW double counting   =       148.55623980     -151.22007245
  entropy T*S    EENTRO =         0.00000000
  eigenvalues    EBANDS =      -115.03819911
  atomic energy  EATOM  =       319.25655240
  ---------------------------------------------------
  free energy    TOTEN  =       -22.92483393 eV

  energy without entropy =      -22.92483393  energy(sigma->0) =      -22.92483393


--------------------------------------------------------------------------------------------------------




----------------------------------------- Iteration    1(  13)  ---------------------------------------


    POTLOK:  cpu time    0.96: real time    0.96
    SETDIJ:  cpu time    0.01: real time    0.01
     EDDAV:  cpu time    0.45: real time    0.45
       DOS:  cpu time    0.00: real time    0.00
    CHARGE:  cpu time    0.13: real time    0.13
    MIXING:  cpu time    0.04: real time    0.04
    --------------------------------------------
      LOOP:  cpu time    1.60: real time    1.70

 eigenvalue-minimisations  :    19
 total energy-change (2. order) :-0.1417672E-02  (-0.2774475E-04)
 number of electron      10.0000001 magnetization 
 augmentation part        0.2185434 magnetization 

 Broyden mixing:
  rms(total) = 0.19475E-02    rms(broyden)= 0.19467E-02
  rms(prec ) = 0.32828E-02
  weight for this iteration     100.00

 eigenvalues of (default mixing * dielectric matrix)
  average eigenvalue GAMMA=   2.2752
  5.5798  3.5449  2.4527  2.0482  1.2509  1.2509  0.9944  1.0799

 Free energy of the ion-electron system (eV)
  ---------------------------------------------------
  alpha Z        PSCENC =         0.89086884
  Ewald energy   TEWEN  =       102.54077057
  -1/2 Hartree   DENC   =      -360.55829211
  -exchange  EXHF       =         0.00000000
  -V(xc)+E(xc)   XCENC  =        32.76220167
  PAW double counting   =       148.46022698     -151.12270772
  entropy T*S    EENTRO =         0.00000000
  eigenvalues    EBANDS =      -115.15587224
  atomic energy  EATOM  =       319.25655240
  ---------------------------------------------------
  free energy    TOTEN  =       -22.92625161 eV

  energy without entropy =      -22.92625161  energy(sigma->0) =      -22.92625161


--------------------------------------------------------------------------------------------------------




----------------------------------------- Iteration    1(  14)  ---------------------------------------


    POTLOK:  cpu time    1.04: real time    1.04
    SETDIJ:  cpu time    0.01: real time    0.01
     EDDAV:  cpu time    0.46: real time    0.46
       DOS:  cpu time    0.00: real time    0.00
    CHARGE:  cpu time    0.14: real time    0.15
    MIXING:  cpu time    0.04: real time    0.04
    --------------------------------------------
      LOOP:  cpu time    1.70: real time    1.77

 eigenvalue-minimisations  :    18
 total energy-change (2. order) :-0.5436696E-03  (-0.1509023E-04)
 number of electron      10.0000001 magnetization 
 augmentation part        0.2184643 magnetization 

 Broyden mixing:
  rms(total) = 0.46367E-03    rms(broyden)= 0.46354E-03
  rms(prec ) = 0.77067E-03
  weight for this iteration     100.00

 eigenvalues of (default mixing * dielectric matrix)
  average eigenvalue GAMMA=   2.3436
  5.8811  3.8803  2.6083  2.6083  1.6227  1.2503  1.2503  1.0237  0.9678

 Free energy of the ion-electron system (eV)
  ---------------------------------------------------
  alpha Z        PSCENC =         0.89086884
  Ewald energy   TEWEN  =       102.54077057
  -1/2 Hartree   DENC   =      -360.63324788
  -exchange  EXHF       =         0.00000000
  -V(xc)+E(xc)   XCENC  =        32.76529083
  PAW double counting   =       148.55434062     -151.21744801
  entropy T*S    EENTRO =         0.00000000
  eigenvalues    EBANDS =      -115.08392266
  atomic energy  EATOM  =       319.25655240
  ---------------------------------------------------
  free energy    TOTEN  =       -22.92679528 eV

  energy without entropy =      -22.92679528  energy(sigma->0) =      -22.92679528


--------------------------------------------------------------------------------------------------------




----------------------------------------- Iteration    1(  15)  ---------------------------------------


    POTLOK:  cpu time    1.04: real time    1.04
    SETDIJ:  cpu time    0.01: real time    0.01
     EDDAV:  cpu time    0.48: real time    0.48
       DOS:  cpu time    0.00: real time    0.00
    CHARGE:  cpu time    0.14: real time    0.14
    MIXING:  cpu time    0.05: real time    0.05
    --------------------------------------------
      LOOP:  cpu time    1.72: real time    1.76

 eigenvalue-minimisations  :    19
 total energy-change (2. order) :-0.1237014E-03  (-0.1832650E-05)
 number of electron      10.0000001 magnetization 
 augmentation part        0.2184728 magnetization 

 Broyden mixing:
  rms(total) = 0.37811E-03    rms(broyden)= 0.37800E-03
  rms(prec ) = 0.48665E-03
  weight for this iteration     100.00

 eigenvalues of (default mixing * dielectric matrix)
  average eigenvalue GAMMA=   2.2981
  6.1641  4.1671  2.8909  2.3364  1.8850  1.2875  1.2875  1.0296  1.0296  0.9028

 Free energy of the ion-electron system (eV)
  ---------------------------------------------------
  alpha Z        PSCENC =         0.89086884
  Ewald energy   TEWEN  =       102.54077057
  -1/2 Hartree   DENC   =      -360.60762351
  -exchange  EXHF       =         0.00000000
  -V(xc)+E(xc)   XCENC  =        32.76372771
  PAW double counting   =       148.50023034     -151.16341757
  entropy T*S    EENTRO =         0.00000000
  eigenvalues    EBANDS =      -115.10802776
  atomic energy  EATOM  =       319.25655240
  ---------------------------------------------------
  free energy    TOTEN  =       -22.92691898 eV

  energy without entropy =      -22.92691898  energy(sigma->0) =      -22.92691898


--------------------------------------------------------------------------------------------------------




----------------------------------------- Iteration    1(  16)  ---------------------------------------


    POTLOK:  cpu time    1.06: real time    1.06
    SETDIJ:  cpu time    0.01: real time    0.01
     EDDAV:  cpu time    0.47: real time    0.47
       DOS:  cpu time    0.00: real time    0.00
    --------------------------------------------
      LOOP:  cpu time    1.54: real time    1.59

 eigenvalue-minimisations  :    19
 total energy-change (2. order) :-0.1447194E-04  (-0.1438548E-06)
 number of electron      10.0000001 magnetization 
 augmentation part        0.2184728 magnetization 

 Free energy of the ion-electron system (eV)
  ---------------------------------------------------
  alpha Z        PSCENC =         0.89086884
  Ewald energy   TEWEN  =       102.54077057
  -1/2 Hartree   DENC   =      -360.60996578
  -exchange  EXHF       =         0.00000000
  -V(xc)+E(xc)   XCENC  =        32.76408182
  PAW double counting   =       148.51973567     -151.18289653
  entropy T*S    EENTRO =         0.00000000
  eigenvalues    EBANDS =      -115.10608044
  atomic energy  EATOM  =       319.25655240
  ---------------------------------------------------
  free energy    TOTEN  =       -22.92693345 eV

  energy without entropy =      -22.92693345  energy(sigma->0) =      -22.92693345


--------------------------------------------------------------------------------------------------------




 average (electrostatic) potential at core
  the test charge radii are     0.5201  0.6991
  (the norm of the test charge is              1.0000)
       1 -43.3953       2 -43.3953       3 -58.7126       4 -58.7126
 
 
 
 E-fermi :  -5.8909     XC(G=0):  -1.4428     alpha+bet : -0.5000


 k-point   1 :       0.0000    0.0000    0.0000
  band No.  band energies     occupation 
      1     -18.2428      2.00000
      2     -13.7747      2.00000
      3     -11.8637      2.00000
      4      -6.8359      2.00000
      5      -6.8359      2.00000
      6      -0.4404      0.00000
      7      -0.1254      0.00000
      8      -0.1254      0.00000
      9       1.0303      0.00000


--------------------------------------------------------------------------------------------------------


 soft charge-density along one line, spin component           1
         0         1         2         3         4         5         6         7         8         9
 total charge-density along one line
 
 pseudopotential strength for first ion, spin component:           1
 -2.367  -0.014   0.000  -0.002   0.000
 -0.014   0.049   0.000  -0.002   0.000
  0.000   0.000  -0.333   0.000   0.000
 -0.002  -0.002   0.000  -0.327   0.000
  0.000   0.000   0.000   0.000  -0.333
 total augmentation occupancy for first ion, spin component:           1
  1.692  -0.537   0.000   0.339   0.000
 -0.537   0.184   0.000  -0.110   0.000
  0.000   0.000   0.010   0.000   0.000
  0.339  -0.110   0.000   0.068   0.000
  0.000   0.000   0.000   0.000   0.010


------------------------ aborting loop because EDIFF is reached ----------------------------------------


    CHARGE:  cpu time    0.14: real time    0.14
    FORLOC:  cpu time    0.09: real time    0.09
    FORNL :  cpu time    0.07: real time    0.08
    STRESS:  cpu time    0.28: real time    0.29
    FORHAR:  cpu time    0.34: real time    0.34
    MIXING:  cpu time    0.05: real time    0.05

  FORCE on cell =-STRESS in cart. coord.  units (eV):
  Direction    XX          YY          ZZ          XY          YZ          ZX
  --------------------------------------------------------------------------------------
  Alpha Z     0.89087     0.89087     0.89087
  Ewald     -87.17673   -87.17673   276.89416     0.00000     0.00000     0.00000
  Hartree    77.18670    77.18670   206.23004     0.00000     0.00000     0.00000
  E(xc)     -35.01883   -35.01883   -33.48591     0.00000     0.00000     0.00000
  Local     -99.26159   -99.26159  -548.38070     0.00000     0.00000     0.00000
  n-local   -11.29643   -11.29643   -11.12672     0.00000     0.00000     0.00000
  augment    -0.35189    -0.35189    -0.68841     0.00000     0.00000     0.00000
  Kinetic   154.90861   154.90861   108.86389     0.00000     0.00000     0.00000
  Fock        0.00000     0.00000     0.00000     0.00000     0.00000     0.00000
  -------------------------------------------------------------------------------------
  Total      -0.11928    -0.11928    -0.80279     0.00000     0.00000     0.00000
  in kB      -0.37325    -0.37325    -2.51212     0.00000     0.00000     0.00000
  external pressure =       -1.09 kB  Pullay stress =        0.00 kB


 VOLUME and BASIS-vectors are now :
 -----------------------------------------------------------------------------
  energy-cutoff  :      450.00
  volume of cell :      512.00
      direct lattice vectors                 reciprocal lattice vectors
     8.000000000  0.000000000  0.000000000     0.125000000  0.000000000  0.000000000
     0.000000000  8.000000000  0.000000000     0.000000000  0.125000000  0.000000000
     0.000000000  0.000000000  8.000000000     0.000000000  0.000000000  0.125000000

  length of vectors
     8.000000000  8.000000000  8.000000000     0.125000000  0.125000000  0.125000000


 FORCES acting on ions
    electron-ion (+dipol)            ewald-force                    non-local-force                 convergence-correction
 -----------------------------------------------------------------------------------------------
   0.537E-15 0.230E-14 0.541E+02   -.133E-16 -.745E-18 -.605E+02   0.258E-25 0.000E+00 0.625E+01   0.420E-14 0.353E-14 0.254E-03
   -.359E-15 -.209E-14 -.541E+02   0.290E-18 -.244E-17 0.605E+02   0.000E+00 0.000E+00 -.625E+01   -.107E-14 -.109E-15 -.254E-03
   0.164E-14 0.965E-16 -.111E+03   0.245E-16 0.785E-18 0.113E+03   -.993E-23 -.248E-23 -.254E+01   0.242E-14 0.655E-14 -.832E-03
   -.106E-14 -.553E-15 0.111E+03   -.393E-16 0.573E-16 -.113E+03   -.331E-23 -.662E-23 0.254E+01   0.179E-13 0.174E-13 0.832E-03
 -----------------------------------------------------------------------------------------------
   0.757E-15 -.243E-15 0.853E-13   -.277E-16 0.549E-16 0.000E+00   -.132E-22 -.910E-23 0.000E+00   0.235E-13 0.274E-13 0.140E-13
 
 
 POSITION                                       TOTAL-FORCE (eV/Angst)
 -----------------------------------------------------------------------------------
      0.00000      0.00000      6.32601         0.000000      0.000000     -0.175548
      0.00000      0.00000      1.67399         0.000000      0.000000      0.175548
      0.00000      0.00000      0.60808         0.000000      0.000000     -1.057959
      0.00000      0.00000      7.39192         0.000000      0.000000      1.057959
 -----------------------------------------------------------------------------------
    total drift:                                0.000000      0.000000      0.000000


--------------------------------------------------------------------------------------------------------



  FREE ENERGIE OF THE ION-ELECTRON SYSTEM (eV)
  ---------------------------------------------------
  free  energy   TOTEN  =       -22.926933 eV

  energy  without entropy=      -22.926933  energy(sigma->0) =      -22.926933
 


--------------------------------------------------------------------------------------------------------


    POTLOK:  cpu time    1.05: real time    1.05


--------------------------------------------------------------------------------------------------------




--------------------------------------------------------------------------------------------------------


    WAVPRE:  cpu time    0.19: real time    0.19
    FEWALD:  cpu time    0.00: real time    0.00
    ORTHCH:  cpu time    0.02: real time    0.02
     LOOP+:  cpu time   25.69: real time   27.21


----------------------------------------- Iteration    2(   1)  ---------------------------------------


    POTLOK:  cpu time    1.14: real time    1.15
    SETDIJ:  cpu time    0.01: real time    0.01
     EDDAV:  cpu time    0.50: real time    0.50
       DOS:  cpu time    0.00: real time    0.00
    CHARGE:  cpu time    0.16: real time    0.16
    MIXING:  cpu time    0.03: real time    0.03
    --------------------------------------------
      LOOP:  cpu time    1.86: real time    1.95

 eigenvalue-minimisations  :    19
 total energy-change (2. order) : 0.5292316E+00  (-0.1926442E+01)
 number of electron      10.0000019 magnetization 
 augmentation part        0.2383910 magnetization 

 Broyden mixing:
  rms(total) = 0.18319E+00    rms(broyden)= 0.18290E+00
  rms(prec ) = 0.26222E+00
  weight for this iteration     100.00

 Free energy of the ion-electron system (eV)
  ---------------------------------------------------
  alpha Z        PSCENC =         0.89086884
  Ewald energy   TEWEN  =       114.84612895
  -1/2 Hartree   DENC   =      -367.86077058
  -exchange  EXHF       =         0.00000000
  -V(xc)+E(xc)   XCENC  =        32.98951091
  PAW double counting   =       148.52029337     -151.18346353
  entropy T*S    EENTRO =         0.00000000
  eigenvalues    EBANDS =      -119.85680777
  atomic energy  EATOM  =       319.25655240
  ---------------------------------------------------
  free energy    TOTEN  =       -22.39768741 eV

  energy without entropy =      -22.39768741  energy(sigma->0) =      -22.39768741


--------------------------------------------------------------------------------------------------------




----------------------------------------- Iteration    2(   2)  ---------------------------------------


    POTLOK:  cpu time    1.17: real time    1.17
    SETDIJ:  cpu time    0.01: real time    0.01
     EDDAV:  cpu time    0.66: real time    0.67
       DOS:  cpu time    0.00: real time    0.00
    CHARGE:  cpu time    0.16: real time    0.16
    MIXING:  cpu time    0.03: real time    0.03
    --------------------------------------------
      LOOP:  cpu time    2.05: real time    2.05

 eigenvalue-minimisations  :    26
 total energy-change (2. order) : 0.9325270E-01  (-0.2728945E-01)
 number of electron      10.0000019 magnetization 
 augmentation part        0.2380166 magnetization 

 Broyden mixing:
  rms(total) = 0.93477E-01    rms(broyden)= 0.93463E-01
  rms(prec ) = 0.13001E+00
  weight for this iteration     100.00

 eigenvalues of (default mixing * dielectric matrix)
  average eigenvalue GAMMA=   1.9943
  1.9943

 Free energy of the ion-electron system (eV)
  ---------------------------------------------------
  alpha Z        PSCENC =         0.89086884
  Ewald energy   TEWEN  =       114.84612895
  -1/2 Hartree   DENC   =      -370.80508520
  -exchange  EXHF       =         0.00000000
  -V(xc)+E(xc)   XCENC  =        33.12253634
  PAW double counting   =       157.10477201     -159.82336114
  entropy T*S    EENTRO =         0.00000000
  eigenvalues    EBANDS =      -116.89684690
  atomic energy  EATOM  =       319.25655240
  ---------------------------------------------------
  free energy    TOTEN  =       -22.30443471 eV

  energy without entropy =      -22.30443471  energy(sigma->0) =      -22.30443471


--------------------------------------------------------------------------------------------------------




----------------------------------------- Iteration    2(   3)  ---------------------------------------


    POTLOK:  cpu time    1.18: real time    1.18
    SETDIJ:  cpu time    0.01: real time    0.01
     EDDAV:  cpu time    0.69: real time    0.69
       DOS:  cpu time    0.00: real time    0.00
    CHARGE:  cpu time    0.16: real time    0.16
    MIXING:  cpu time    0.03: real time    0.04
    --------------------------------------------
      LOOP:  cpu time    2.08: real time    2.10

 eigenvalue-minimisations  :    27
 total energy-change (2. order) : 0.1969044E-01  (-0.2122840E-01)
 number of electron      10.0000019 magnetization 
 augmentation part        0.2325342 magnetization 

 Broyden mixing:
  rms(total) = 0.30408E-01    rms(broyden)= 0.30363E-01
  rms(prec ) = 0.48709E-01
  weight for this iteration     100.00

 eigenvalues of (default mixing * dielectric matrix)
  average eigenvalue GAMMA=   1.2508
  0.8139  1.6877

 Free energy of the ion-electron system (eV)
  ---------------------------------------------------
  alpha Z        PSCENC =         0.89086884
  Ewald energy   TEWEN  =       114.84612895
  -1/2 Hartree   DENC   =      -373.58980804
  -exchange  EXHF       =         0.00000000
  -V(xc)+E(xc)   XCENC  =        33.25522201
  PAW double counting   =       165.59721075     -168.36766160
  entropy T*S    EENTRO =         0.00000000
  eigenvalues    EBANDS =      -114.17325757
  atomic energy  EATOM  =       319.25655240
  ---------------------------------------------------
  free energy    TOTEN  =       -22.28474426 eV

  energy without entropy =      -22.28474426  energy(sigma->0) =      -22.28474426


--------------------------------------------------------------------------------------------------------




----------------------------------------- Iteration    2(   4)  ---------------------------------------


    POTLOK:  cpu time    1.18: real time    1.18
    SETDIJ:  cpu time    0.01: real time    0.01
     EDDAV:  cpu time    0.50: real time    0.50
       DOS:  cpu time    0.00: real time    0.00
    CHARGE:  cpu time    0.16: real time    0.16
    MIXING:  cpu time    0.04: real time    0.04
    --------------------------------------------
      LOOP:  cpu time    1.90: real time    1.91

 eigenvalue-minimisations  :    18
 total energy-change (2. order) : 0.3278199E-02  (-0.1709493E-02)
 number of electron      10.0000019 magnetization 
 augmentation part        0.2338212 magnetization 

 Broyden mixing:
  rms(total) = 0.11732E-01    rms(broyden)= 0.11728E-01
  rms(prec ) = 0.15676E-01
  weight for this iteration     100.00

 eigenvalues of (default mixing * dielectric matrix)
  average eigenvalue GAMMA=   1.4828
  2.1523  1.1480  1.1480

 Free energy of the ion-electron system (eV)
  ---------------------------------------------------
  alpha Z        PSCENC =         0.89086884
  Ewald energy   TEWEN  =       114.84612895
  -1/2 Hartree   DENC   =      -372.76100466
  -exchange  EXHF       =         0.00000000
  -V(xc)+E(xc)   XCENC  =        33.21524006
  PAW double counting   =       164.19906764     -166.95525496
  entropy T*S    EENTRO =         0.00000000
  eigenvalues    EBANDS =      -114.97306434
  atomic energy  EATOM  =       319.25655240
  ---------------------------------------------------
  free energy    TOTEN  =       -22.28146606 eV

  energy without entropy =      -22.28146606  energy(sigma->0) =      -22.28146606


--------------------------------------------------------------------------------------------------------




----------------------------------------- Iteration    2(   5)  ---------------------------------------


    POTLOK:  cpu time    1.18: real time    1.18
    SETDIJ:  cpu time    0.01: real time    0.01
     EDDAV:  cpu time    0.50: real time    0.50
       DOS:  cpu time    0.00: real time    0.00
    CHARGE:  cpu time    0.16: real time    0.16
    MIXING:  cpu time    0.04: real time    0.04
    --------------------------------------------
      LOOP:  cpu time    1.89: real time    1.91

 eigenvalue-minimisations  :    18
 total energy-change (2. order) :-0.5080172E-04  (-0.1278814E-03)
 number of electron      10.0000019 magnetization 
 augmentation part        0.2339769 magnetization 

 Broyden mixing:
  rms(total) = 0.23463E-02    rms(broyden)= 0.23427E-02
  rms(prec ) = 0.39874E-02
  weight for this iteration     100.00

 eigenvalues of (default mixing * dielectric matrix)
  average eigenvalue GAMMA=   1.4116
  2.2263  1.4382  0.9909  0.9909

 Free energy of the ion-electron system (eV)
  ---------------------------------------------------
  alpha Z        PSCENC =         0.89086884
  Ewald energy   TEWEN  =       114.84612895
  -1/2 Hartree   DENC   =      -372.69871145
  -exchange  EXHF       =         0.00000000
  -V(xc)+E(xc)   XCENC  =        33.21231093
  PAW double counting   =       165.21144951     -167.96577300
  entropy T*S    EENTRO =         0.00000000
  eigenvalues    EBANDS =      -115.03434305
  atomic energy  EATOM  =       319.25655240
  ---------------------------------------------------
  free energy    TOTEN  =       -22.28151687 eV

  energy without entropy =      -22.28151687  energy(sigma->0) =      -22.28151687


--------------------------------------------------------------------------------------------------------




----------------------------------------- Iteration    2(   6)  ---------------------------------------


    POTLOK:  cpu time    1.17: real time    1.17
    SETDIJ:  cpu time    0.01: real time    0.99
     EDDAV:  cpu time    0.52: real time    0.52
       DOS:  cpu time    0.00: real time    0.00
    --------------------------------------------
      LOOP:  cpu time    1.71: real time    2.70

 eigenvalue-minimisations  :    19
 total energy-change (2. order) :-0.8065532E-04  (-0.2385991E-04)
 number of electron      10.0000019 magnetization 
 augmentation part        0.2339769 magnetization 

 Free energy of the ion-electron system (eV)
  ---------------------------------------------------
  alpha Z        PSCENC =         0.89086884
  Ewald energy   TEWEN  =       114.84612895
  -1/2 Hartree   DENC   =      -372.64532640
  -exchange  EXHF       =         0.00000000
  -V(xc)+E(xc)   XCENC  =        33.20975788
  PAW double counting   =       165.29026836     -168.04348335
  entropy T*S    EENTRO =         0.00000000
  eigenvalues    EBANDS =      -115.08636421
  atomic energy  EATOM  =       319.25655240
  ---------------------------------------------------
  free energy    TOTEN  =       -22.28159752 eV

  energy without entropy =      -22.28159752  energy(sigma->0) =      -22.28159752


--------------------------------------------------------------------------------------------------------




 average (electrostatic) potential at core
  the test charge radii are     0.5201  0.6991
  (the norm of the test charge is              1.0000)
       1 -42.7605       2 -42.7605       3 -58.4377       4 -58.4377
 
 
 
 E-fermi :  -6.2267     XC(G=0):  -1.5414     alpha+bet : -0.5000


 k-point   1 :       0.0000    0.0000    0.0000
  band No.  band energies     occupation 
      1     -18.6188      2.00000
      2     -13.0233      2.00000
      3     -11.4967      2.00000
      4      -7.2022      2.00000
      5      -7.2022      2.00000
      6      -0.4978      0.00000
      7       0.6174      0.00000
      8       0.6174      0.00000
      9       0.8464      0.00000


--------------------------------------------------------------------------------------------------------


 soft charge-density along one line, spin component           1
         0         1         2         3         4         5         6         7         8         9
 total charge-density along one line
 
 pseudopotential strength for first ion, spin component:           1
 -2.361  -0.013   0.000  -0.002   0.000
 -0.013   0.049   0.000  -0.002   0.000
  0.000   0.000  -0.336   0.000   0.000
 -0.002  -0.002   0.000  -0.332   0.000
  0.000   0.000   0.000   0.000  -0.336
 total augmentation occupancy for first ion, spin component:           1
  1.569  -0.511   0.000   0.285   0.000
 -0.511   0.177   0.000  -0.095   0.000
  0.000   0.000   0.007   0.000   0.000
  0.285  -0.095   0.000   0.052   0.000
  0.000   0.000   0.000   0.000   0.007


------------------------ aborting loop because EDIFF is reached ----------------------------------------


    CHARGE:  cpu time    0.16: real time    0.16
    FORLOC:  cpu time    0.09: real time    0.09
    FORNL :  cpu time    0.06: real time    0.07
    STRESS:  cpu time    0.29: real time    0.29
    FORHAR:  cpu time    0.37: real time    0.51
    MIXING:  cpu time    0.04: real time    0.04

  FORCE on cell =-STRESS in cart. coord.  units (eV):
  Direction    XX          YY          ZZ          XY          YZ          ZX
  --------------------------------------------------------------------------------------
  Alpha Z     0.89087     0.89087     0.89087
  Ewald     -87.08011   -87.08011   289.00628     0.00000     0.00000     0.00000
  Hartree    82.07767    82.07767   208.78481     0.00000     0.00000     0.00000
  E(xc)     -35.47926   -35.47926   -33.91879     0.00000     0.00000     0.00000
  Local    -106.14612  -106.14612  -555.08209     0.00000     0.00000     0.00000
  n-local   -11.69776   -11.69776   -11.43155     0.00000     0.00000     0.00000
  augment    -0.43438    -0.43438    -0.96508     0.00000     0.00000     0.00000
  Kinetic   157.84074   157.84074   112.57976     0.00000     0.00000     0.00000
  Fock        0.00000     0.00000     0.00000     0.00000     0.00000     0.00000
  -------------------------------------------------------------------------------------
  Total      -0.02835    -0.02835     9.86421     0.00000     0.00000     0.00000
  in kB      -0.08871    -0.08871    30.86760     0.00000     0.00000     0.00000
  external pressure =       10.23 kB  Pullay stress =        0.00 kB


 VOLUME and BASIS-vectors are now :
 -----------------------------------------------------------------------------
  energy-cutoff  :      450.00
  volume of cell :      512.00
      direct lattice vectors                 reciprocal lattice vectors
     8.000000000  0.000000000  0.000000000     0.125000000  0.000000000  0.000000000
     0.000000000  8.000000000  0.000000000     0.000000000  0.125000000  0.000000000
     0.000000000  0.000000000  8.000000000     0.000000000  0.000000000  0.125000000

  length of vectors
     8.000000000  8.000000000  8.000000000     0.125000000  0.125000000  0.125000000


 FORCES acting on ions
    electron-ion (+dipol)            ewald-force                    non-local-force                 convergence-correction
 -----------------------------------------------------------------------------------------------
   0.501E-15 0.214E-14 0.523E+02   0.107E-16 0.890E-17 -.557E+02   0.000E+00 0.000E+00 0.534E+01   0.371E-14 0.373E-14 -.128E-01
   -.399E-15 -.221E-14 -.523E+02   -.103E-16 0.104E-16 0.557E+02   0.000E+00 0.000E+00 -.534E+01   0.343E-15 -.851E-15 0.128E-01
   -.794E-15 0.520E-15 -.136E+03   0.487E-16 -.464E-18 0.149E+03   0.000E+00 0.000E+00 0.134E+01   0.847E-14 0.315E-14 0.500E-01
   0.561E-18 -.204E-14 0.136E+03   -.769E-16 0.361E-16 -.149E+03   0.827E-24 -.165E-23 -.134E+01   0.193E-13 0.192E-13 -.500E-01
 -----------------------------------------------------------------------------------------------
   -.691E-15 -.159E-14 -.114E-12   -.277E-16 0.549E-16 0.000E+00   0.827E-24 -.165E-23 0.000E+00   0.319E-13 0.252E-13 0.318E-13
 
 
 POSITION                                       TOTAL-FORCE (eV/Angst)
 -----------------------------------------------------------------------------------
      0.00000      0.00000      6.31754         0.000000      0.000000      1.871434
      0.00000      0.00000      1.68246         0.000000      0.000000     -1.871434
      0.00000      0.00000      0.55704         0.000000      0.000000     14.521041
      0.00000      0.00000      7.44296         0.000000      0.000000    -14.521041
 -----------------------------------------------------------------------------------
    total drift:                                0.000000      0.000000      0.000000


--------------------------------------------------------------------------------------------------------



  FREE ENERGIE OF THE ION-ELECTRON SYSTEM (eV)
  ---------------------------------------------------
  free  energy   TOTEN  =       -22.281598 eV

  energy  without entropy=      -22.281598  energy(sigma->0) =      -22.281598
 
 d Force =-0.7015009E+00[-0.151E+01, 0.111E+00]  d Energy =-0.6453359E+00-0.562E-01
 d Force =-0.1236378E+02[-0.142E+02,-0.105E+02]  d Ewald  =-0.1230536E+02-0.584E-01


--------------------------------------------------------------------------------------------------------


    POTLOK:  cpu time    1.18: real time    1.19


--------------------------------------------------------------------------------------------------------


 Steepest descent step on ions:
 trial-energy change:    0.645336  1 .order    0.701501   -0.110967    1.513969
  (g-gl).g = 0.111E+00      g.g   = 0.111E+00  gl.gl    = 0.000E+00
 g(Force)  = 0.111E+00   g(Stress)= 0.000E+00 ortho     = 0.000E+00
 gamma     =   0.00000
 trial     =   1.00000
 opt step  =   0.08430  (harmonic =   0.06829) maximal distance =0.00430251
 next E    =   -22.931644   (d E  =  -0.00471)


--------------------------------------------------------------------------------------------------------


    WAVPRE:  cpu time    0.20: real time    0.20
    FEWALD:  cpu time    0.00: real time    0.00
    ORTHCH:  cpu time    0.02: real time    0.02
     LOOP+:  cpu time   13.92: real time   15.43


----------------------------------------- Iteration    3(   1)  ---------------------------------------


    POTLOK:  cpu time    1.17: real time    1.18
    SETDIJ:  cpu time    0.01: real time    0.01
     EDDAV:  cpu time    0.49: real time    0.49
       DOS:  cpu time    0.00: real time    0.00
    CHARGE:  cpu time    0.16: real time    0.16
    MIXING:  cpu time    0.03: real time    0.03
    --------------------------------------------
      LOOP:  cpu time    1.87: real time    1.87

 eigenvalue-minimisations  :    18
 total energy-change (2. order) :-0.7486409E+00  (-0.1650299E+01)
 number of electron      10.0000003 magnetization 
 augmentation part        0.2137420 magnetization 

 Broyden mixing:
  rms(total) = 0.16381E+00    rms(broyden)= 0.16358E+00
  rms(prec ) = 0.23790E+00
  weight for this iteration     100.00

 Free energy of the ion-electron system (eV)
  ---------------------------------------------------
  alpha Z        PSCENC =         0.89086884
  Ewald energy   TEWEN  =       103.43775185
  -1/2 Hartree   DENC   =      -365.81732540
  -exchange  EXHF       =         0.00000000
  -V(xc)+E(xc)   XCENC  =        32.99316293
  PAW double counting   =       165.54406561     -168.29892294
  entropy T*S    EENTRO =         0.00000000
  eigenvalues    EBANDS =      -111.03631103
  atomic energy  EATOM  =       319.25655240
  ---------------------------------------------------
  free energy    TOTEN  =       -23.03015772 eV

  energy without entropy =      -23.03015772  energy(sigma->0) =      -23.03015772


--------------------------------------------------------------------------------------------------------




----------------------------------------- Iteration    3(   2)  ---------------------------------------


    POTLOK:  cpu time    1.01: real time    1.01
    SETDIJ:  cpu time    0.01: real time    0.01
     EDDAV:  cpu time    0.61: real time    0.62
       DOS:  cpu time    0.00: real time    0.00
    CHARGE:  cpu time    0.14: real time    0.14
    MIXING:  cpu time    0.03: real time    0.03
    --------------------------------------------
      LOOP:  cpu time    1.82: real time    2.67

 eigenvalue-minimisations  :    26
 total energy-change (2. order) : 0.8051424E-01  (-0.2139716E-01)
 number of electron      10.0000004 magnetization 
 augmentation part        0.2167339 magnetization 

 Broyden mixing:
  rms(total) = 0.85296E-01    rms(broyden)= 0.85282E-01
  rms(prec ) = 0.11732E+00
  weight for this iteration     100.00

 eigenvalues of (default mixing * dielectric matrix)
  average eigenvalue GAMMA=   1.9298
  1.9298

 Free energy of the ion-electron system (eV)
  ---------------------------------------------------
  alpha Z        PSCENC =         0.89086884
  Ewald energy   TEWEN  =       103.43775185
  -1/2 Hartree   DENC   =      -363.07853620
  -exchange  EXHF       =         0.00000000
  -V(xc)+E(xc)   XCENC  =        32.86418360
  PAW double counting   =       157.00593907     -159.70590023
  entropy T*S    EENTRO =         0.00000000
  eigenvalues    EBANDS =      -113.62050282
  atomic energy  EATOM  =       319.25655240
  ---------------------------------------------------
  free energy    TOTEN  =       -22.94964348 eV

  energy without entropy =      -22.94964348  energy(sigma->0) =      -22.94964348


--------------------------------------------------------------------------------------------------------




----------------------------------------- Iteration    3(   3)  ---------------------------------------


    POTLOK:  cpu time    0.95: real time    0.95
    SETDIJ:  cpu time    0.01: real time    0.01
     EDDAV:  cpu time    0.46: real time    0.46
       DOS:  cpu time    0.00: real time    0.00
    CHARGE:  cpu time    0.14: real time    0.14
    MIXING:  cpu time    0.03: real time    0.04
    --------------------------------------------
      LOOP:  cpu time    1.60: real time    1.64

 eigenvalue-minimisations  :    18
 total energy-change (2. order) : 0.1746459E-01  (-0.1388220E-01)
 number of electron      10.0000004 magnetization 
 augmentation part        0.2203146 magnetization 

 Broyden mixing:
  rms(total) = 0.20892E-01    rms(broyden)= 0.20848E-01
  rms(prec ) = 0.32958E-01
  weight for this iteration     100.00

 eigenvalues of (default mixing * dielectric matrix)
  average eigenvalue GAMMA=   1.6707
  1.6707  1.6707

 Free energy of the ion-electron system (eV)
  ---------------------------------------------------
  alpha Z        PSCENC =         0.89086884
  Ewald energy   TEWEN  =       103.43775185
  -1/2 Hartree   DENC   =      -361.03384741
  -exchange  EXHF       =         0.00000000
  -V(xc)+E(xc)   XCENC  =        32.77090544
  PAW double counting   =       150.11528369     -152.77538695
  entropy T*S    EENTRO =         0.00000000
  eigenvalues    EBANDS =      -115.59430675
  atomic energy  EATOM  =       319.25655240
  ---------------------------------------------------
  free energy    TOTEN  =       -22.93217889 eV

  energy without entropy =      -22.93217889  energy(sigma->0) =      -22.93217889


--------------------------------------------------------------------------------------------------------




----------------------------------------- Iteration    3(   4)  ---------------------------------------


    POTLOK:  cpu time    0.97: real time    0.97
    SETDIJ:  cpu time    0.01: real time    0.01
     EDDAV:  cpu time    0.47: real time    0.49
       DOS:  cpu time    0.00: real time    0.00
    CHARGE:  cpu time    0.14: real time    0.14
    MIXING:  cpu time    0.04: real time    0.04
    --------------------------------------------
      LOOP:  cpu time    1.63: real time    1.67

 eigenvalue-minimisations  :    18
 total energy-change (2. order) :-0.1919581E-03  (-0.2690911E-02)
 number of electron      10.0000003 magnetization 
 augmentation part        0.2189611 magnetization 

 Broyden mixing:
  rms(total) = 0.17915E-01    rms(broyden)= 0.17914E-01
  rms(prec ) = 0.25557E-01
  weight for this iteration     100.00

 eigenvalues of (default mixing * dielectric matrix)
  average eigenvalue GAMMA=   1.6765
  2.5624  1.2335  1.2335

 Free energy of the ion-electron system (eV)
  ---------------------------------------------------
  alpha Z        PSCENC =         0.89086884
  Ewald energy   TEWEN  =       103.43775185
  -1/2 Hartree   DENC   =      -362.04731070
  -exchange  EXHF       =         0.00000000
  -V(xc)+E(xc)   XCENC  =        32.81879515
  PAW double counting   =       151.40253232     -154.07871187
  entropy T*S    EENTRO =         0.00000000
  eigenvalues    EBANDS =      -114.61284884
  atomic energy  EATOM  =       319.25655240
  ---------------------------------------------------
  free energy    TOTEN  =       -22.93237085 eV

  energy without entropy =      -22.93237085  energy(sigma->0) =      -22.93237085


--------------------------------------------------------------------------------------------------------




----------------------------------------- Iteration    3(   5)  ---------------------------------------


    POTLOK:  cpu time    0.97: real time    0.97
    SETDIJ:  cpu time    0.01: real time    0.01
     EDDAV:  cpu time    0.46: real time    0.46
       DOS:  cpu time    0.00: real time    0.00
    CHARGE:  cpu time    0.14: real time    0.14
    MIXING:  cpu time    0.04: real time    0.04
    --------------------------------------------
      LOOP:  cpu time    1.63: real time    1.65

 eigenvalue-minimisations  :    18
 total energy-change (2. order) : 0.9980747E-03  (-0.5158176E-03)
 number of electron      10.0000003 magnetization 
 augmentation part        0.2195196 magnetization 

 Broyden mixing:
  rms(total) = 0.18459E-02    rms(broyden)= 0.18417E-02
  rms(prec ) = 0.30685E-02
  weight for this iteration     100.00

 eigenvalues of (default mixing * dielectric matrix)
  average eigenvalue GAMMA=   1.4932
  2.2998  1.2523  1.2523  1.1681

 Free energy of the ion-electron system (eV)
  ---------------------------------------------------
  alpha Z        PSCENC =         0.89086884
  Ewald energy   TEWEN  =       103.43775185
  -1/2 Hartree   DENC   =      -361.59428023
  -exchange  EXHF       =         0.00000000
  -V(xc)+E(xc)   XCENC  =        32.79829109
  PAW double counting   =       149.61115325     -152.27883174
  entropy T*S    EENTRO =         0.00000000
  eigenvalues    EBANDS =      -115.05287824
  atomic energy  EATOM  =       319.25655240
  ---------------------------------------------------
  free energy    TOTEN  =       -22.93137278 eV

  energy without entropy =      -22.93137278  energy(sigma->0) =      -22.93137278


--------------------------------------------------------------------------------------------------------




----------------------------------------- Iteration    3(   6)  ---------------------------------------


    POTLOK:  cpu time    0.97: real time    0.97
    SETDIJ:  cpu time    0.01: real time    0.01
     EDDAV:  cpu time    0.48: real time    0.48
       DOS:  cpu time    0.00: real time    0.00
    --------------------------------------------
      LOOP:  cpu time    1.46: real time    1.48

 eigenvalue-minimisations  :    19
 total energy-change (2. order) :-0.6475712E-04  (-0.3244084E-04)
 number of electron      10.0000003 magnetization 
 augmentation part        0.2195196 magnetization 

 Free energy of the ion-electron system (eV)
  ---------------------------------------------------
  alpha Z        PSCENC =         0.89086884
  Ewald energy   TEWEN  =       103.43775185
  -1/2 Hartree   DENC   =      -361.59966868
  -exchange  EXHF       =         0.00000000
  -V(xc)+E(xc)   XCENC  =        32.79833610
  PAW double counting   =       149.67824158     -152.34627795
  entropy T*S    EENTRO =         0.00000000
  eigenvalues    EBANDS =      -115.04724168
  atomic energy  EATOM  =       319.25655240
  ---------------------------------------------------
  free energy    TOTEN  =       -22.93143753 eV

  energy without entropy =      -22.93143753  energy(sigma->0) =      -22.93143753


--------------------------------------------------------------------------------------------------------




 average (electrostatic) potential at core
  the test charge radii are     0.5201  0.6991
  (the norm of the test charge is              1.0000)
       1 -43.3285       2 -43.3285       3 -58.6826       4 -58.6826
 
 
 
 E-fermi :  -5.8838     XC(G=0):  -1.3555     alpha+bet : -0.5000


 k-point   1 :       0.0000    0.0000    0.0000
  band No.  band energies     occupation 
      1     -18.2709      2.00000
      2     -13.7051      2.00000
      3     -11.8301      2.00000
      4      -6.8588      2.00000
      5      -6.8588      2.00000
      6      -0.3809      0.00000
      7      -0.0573      0.00000
      8      -0.0573      0.00000
      9       1.0594      0.00000


--------------------------------------------------------------------------------------------------------


 soft charge-density along one line, spin component           1
         0         1         2         3         4         5         6         7         8         9
 total charge-density along one line
 
 pseudopotential strength for first ion, spin component:           1
 -2.367  -0.014   0.000  -0.002   0.000
 -0.014   0.049   0.000  -0.002   0.000
  0.000   0.000  -0.333   0.000   0.000
 -0.002  -0.002   0.000  -0.328   0.000
  0.000   0.000   0.000   0.000  -0.333
 total augmentation occupancy for first ion, spin component:           1
  1.680  -0.535   0.000   0.334   0.000
 -0.535   0.184   0.000  -0.109   0.000
  0.000   0.000   0.010   0.000   0.000
  0.334  -0.109   0.000   0.067   0.000
  0.000   0.000   0.000   0.000   0.010


------------------------ aborting loop because EDIFF is reached ----------------------------------------


    CHARGE:  cpu time    0.14: real time    0.14
    FORLOC:  cpu time    0.09: real time    0.09
    FORNL :  cpu time    0.06: real time    0.06
    STRESS:  cpu time    0.28: real time    0.28
    FORHAR:  cpu time    0.34: real time    0.34
    MIXING:  cpu time    0.04: real time    0.04

  FORCE on cell =-STRESS in cart. coord.  units (eV):
  Direction    XX          YY          ZZ          XY          YZ          ZX
  --------------------------------------------------------------------------------------
  Alpha Z     0.89087     0.89087     0.89087
  Ewald     -87.16832   -87.16832   277.77432     0.00000     0.00000     0.00000
  Hartree    77.56981    77.56981   206.43230     0.00000     0.00000     0.00000
  E(xc)     -35.05370   -35.05370   -33.51840     0.00000     0.00000     0.00000
  Local     -99.78573   -99.78573  -548.99776     0.00000     0.00000     0.00000
  n-local   -11.31816   -11.31816   -11.14127     0.00000     0.00000     0.00000
  augment    -0.35852    -0.35852    -0.70420     0.00000     0.00000     0.00000
  Kinetic   155.11296   155.11296   109.09005     0.00000     0.00000     0.00000
  Fock        0.00000     0.00000     0.00000     0.00000     0.00000     0.00000
  -------------------------------------------------------------------------------------
  Total      -0.11079    -0.11079    -0.17409     0.00000     0.00000     0.00000
  in kB      -0.34670    -0.34670    -0.54477     0.00000     0.00000     0.00000
  external pressure =       -0.41 kB  Pullay stress =        0.00 kB


 VOLUME and BASIS-vectors are now :
 -----------------------------------------------------------------------------
  energy-cutoff  :      450.00
  volume of cell :      512.00
      direct lattice vectors                 reciprocal lattice vectors
     8.000000000  0.000000000  0.000000000     0.125000000  0.000000000  0.000000000
     0.000000000  8.000000000  0.000000000     0.000000000  0.125000000  0.000000000
     0.000000000  0.000000000  8.000000000     0.000000000  0.000000000  0.125000000

  length of vectors
     8.000000000  8.000000000  8.000000000     0.125000000  0.125000000  0.125000000


 FORCES acting on ions
    electron-ion (+dipol)            ewald-force                    non-local-force                 convergence-correction
 -----------------------------------------------------------------------------------------------
   -.258E-15 -.650E-15 0.540E+02   -.270E-16 0.255E-17 -.601E+02   0.000E+00 0.000E+00 0.616E+01   0.422E-14 0.293E-14 -.998E-03
   0.263E-15 -.606E-15 -.540E+02   0.223E-16 0.220E-16 0.601E+02   0.000E+00 -.323E-26 -.616E+01   -.171E-14 0.531E-16 0.998E-03
   0.282E-16 0.466E-14 -.113E+03   -.232E-16 0.251E-17 0.116E+03   0.000E+00 0.000E+00 -.223E+01   -.948E-15 0.560E-14 0.182E-01
   0.499E-15 0.340E-15 0.113E+03   0.177E-18 0.279E-16 -.116E+03   0.000E+00 0.000E+00 0.223E+01   0.190E-13 0.165E-13 -.182E-01
 -----------------------------------------------------------------------------------------------
   0.533E-15 0.374E-14 0.128E-12   -.277E-16 0.549E-16 0.000E+00   0.000E+00 -.323E-26 0.000E+00   0.205E-13 0.251E-13 0.103E-13
 
 
 POSITION                                       TOTAL-FORCE (eV/Angst)
 -----------------------------------------------------------------------------------
      0.00000      0.00000      6.32530         0.000000      0.000000      0.024289
      0.00000      0.00000      1.67470         0.000000      0.000000     -0.024289
      0.00000      0.00000      0.60378         0.000000      0.000000      0.001632
      0.00000      0.00000      7.39622         0.000000      0.000000     -0.001632
 -----------------------------------------------------------------------------------
    total drift:                                0.000000      0.000000      0.000000


--------------------------------------------------------------------------------------------------------



  FREE ENERGIE OF THE ION-ELECTRON SYSTEM (eV)
  ---------------------------------------------------
  free  energy   TOTEN  =       -22.931438 eV

  energy  without entropy=      -22.931438  energy(sigma->0) =      -22.931438
 
 d Force = 0.6934362E+00[ 0.529E-03, 0.139E+01]  d Energy = 0.6498400E+00 0.436E-01
 d Force = 0.1145403E+02[ 0.988E+01, 0.130E+02]  d Ewald  = 0.1140838E+02 0.457E-01


--------------------------------------------------------------------------------------------------------


    POTLOK:  cpu time    1.00: real time    1.00


--------------------------------------------------------------------------------------------------------




--------------------------------------------------------------------------------------------------------


  
 reached required accuracy - stopping structural energy minimisation
 writing wavefunctions
     LOOP+:  cpu time   12.00: real time   13.17
    4ORBIT:  cpu time    0.00: real time    0.00

 total amount of memory used by VASP on root node    91136. kBytes
========================================================================

   base      :      30000. kBytes
   nonl-proj :       2124. kBytes
   fftplans  :      20656. kBytes
   grid      :      36747. kBytes
   one-center:         12. kBytes
   wavefun   :       1597. kBytes
 
  
  
 General timing and accounting informations for this job:
 ========================================================
  
                  Total CPU time used (sec):       53.588
                            User time (sec):       53.005
                          System time (sec):        0.583
                         Elapsed time (sec):       58.200
  
                   Maximum memory used (kb):           0.
                   Average memory used (kb):           0.
  
                          Minor page faults:       157096
                          Major page faults:            0
                 Voluntary context switches:         1530
