<?xml version="1.0" encoding="ISO-8859-1"?>
<modeling>
 <generator>
  <i name="program" type="string">vasp </i>
  <i name="version" type="string">5.2.12  </i>
  <i name="subversion" type="string">11Nov11 complex                                                      parallel </i>
  <i name="platform" type="string">LinuxIFC </i>
  <i name="date" type="string">2012 11 03 </i>
  <i name="time" type="string">02:06:34 </i>
 </generator>
 <incar>
  <i type="string" name="PREC">normal</i>
  <i type="int" name="IBRION">     2</i>
  <i type="int" name="NSW">    10</i>
  <i name="ENCUT">    450.00000000</i>
  <i type="int" name="ISMEAR">     0</i>
 </incar>
 <kpoints>
  <generation param="Monkhorst-Pack">
   <v type="int" name="divisions">       1        1        1 </v>
   <v name="usershift">      0.00000000       0.00000000       0.00000000 </v>
   <v name="genvec1">      1.00000000       0.00000000       0.00000000 </v>
   <v name="genvec2">      0.00000000       1.00000000       0.00000000 </v>
   <v name="genvec3">      0.00000000       0.00000000       1.00000000 </v>
   <v name="shift">      0.00000000       0.00000000       0.00000000 </v>
  </generation>
  <varray name="kpointlist" >
   <v>       0.00000000       0.00000000       0.00000000 </v>
  </varray>
  <varray name="weights" >
   <v>       1.00000000 </v>
  </varray>
 </kpoints>
 <parameters>
  <separator name="general" >
   <i type="string" name="SYSTEM">unknown system</i>
   <i type="logical" name="LCOMPAT"> F  </i>
  </separator>
  <separator name="electronic" >
   <i type="string" name="PREC">normal</i>
   <i name="ENMAX">    450.00000000</i>
   <i name="ENAUG">    644.87300000</i>
   <i name="EDIFF">      0.00010000</i>
   <i type="int" name="IALGO">    38</i>
   <i type="int" name="IWAVPR">    11</i>
   <i type="int" name="NBANDS">     9</i>
   <i name="NELECT">     10.00000000</i>
   <i type="int" name="TURBO">     0</i>
   <i type="int" name="IRESTART">     0</i>
   <i type="int" name="NREBOOT">     0</i>
   <i type="int" name="NMIN">     0</i>
   <i name="EREF">      0.00000000</i>
   <separator name="electronic smearing" >
    <i type="int" name="ISMEAR">     0</i>
    <i name="SIGMA">      0.20000000</i>
    <i name="KSPACING">      0.50000000</i>
    <i type="logical" name="KGAMMA"> T  </i>
   </separator>
   <separator name="electronic projectors" >
    <i type="logical" name="LREAL"> F  </i>
    <v name="ROPT">      0.00000000      0.00000000</v>
    <i type="int" name="LMAXPAW">  -100</i>
    <i type="int" name="LMAXMIX">     2</i>
    <i type="logical" name="NLSPLINE"> F  </i>
   </separator>
   <separator name="electronic startup" >
    <i type="int" name="ISTART">     0</i>
    <i type="int" name="ICHARG">     2</i>
    <i type="int" name="INIWAV">     1</i>
   </separator>
   <separator name="electronic spin" >
    <i type="int" name="ISPIN">     1</i>
    <i type="logical" name="LNONCOLLINEAR"> F  </i>
    <v name="MAGMOM">      1.00000000      1.00000000      1.00000000      1.00000000</v>
    <i name="NUPDOWN">     -1.00000000</i>
    <i type="logical" name="LSORBIT"> F  </i>
    <v name="SAXIS">      0.00000000      0.00000000      1.00000000</v>
    <i type="logical" name="LSPIRAL"> F  </i>
    <v name="QSPIRAL">      0.00000000      0.00000000      0.00000000</v>
    <i type="logical" name="LZEROZ"> F  </i>
   </separator>
   <separator name="electronic exchange-correlation" >
    <i type="logical" name="LASPH"> F  </i>
    <i type="logical" name="LMETAGGA"> F  </i>
   </separator>
   <separator name="electronic convergence" >
    <i type="int" name="NELM">    60</i>
    <i type="int" name="NELMDL">    -5</i>
    <i type="int" name="NELMIN">     2</i>
    <i name="ENINI">    450.00000000</i>
    <separator name="electronic convergence detail" >
     <i type="logical" name="LDIAG"> T  </i>
     <i type="logical" name="LSUBROT"> T  </i>
     <i name="WEIMIN">      0.00100000</i>
     <i name="EBREAK">      0.00000278</i>
     <i name="DEPER">      0.30000000</i>
     <i type="int" name="NRMM">     4</i>
     <i name="TIME">      0.40000000</i>
    </separator>
   </separator>
   <separator name="electronic mixer" >
    <i name="AMIX">      0.40000000</i>
    <i name="BMIX">      1.00000000</i>
    <i name="AMIN">      0.10000000</i>
    <i name="AMIX_MAG">      1.60000000</i>
    <i name="BMIX_MAG">      1.00000000</i>
    <separator name="electronic mixer details" >
     <i type="int" name="IMIX">     4</i>
     <i type="int" name="MAXMIX">   -45</i>
     <i name="WC">    100.00000000</i>
     <i type="int" name="INIMIX">     1</i>
     <i type="int" name="MIXPRE">     1</i>
     <i type="int" name="MREMOVE">     5</i>
    </separator>
   </separator>
   <separator name="electronic dipolcorrection" >
    <i type="logical" name="LDIPOL"> F  </i>
    <i type="logical" name="LMONO"> F  </i>
    <i type="int" name="IDIPOL">     0</i>
    <i name="EPSILON">      1.00000000</i>
    <v name="DIPOL">   -100.00000000   -100.00000000   -100.00000000</v>
    <i name="EFIELD">      0.00000000</i>
   </separator>
  </separator>
  <separator name="grids" >
   <i type="int" name="NGX">    42</i>
   <i type="int" name="NGY">    42</i>
   <i type="int" name="NGZ">    42</i>
   <i type="int" name="NGXF">    84</i>
   <i type="int" name="NGYF">    84</i>
   <i type="int" name="NGZF">    84</i>
   <i type="logical" name="ADDGRID"> F  </i>
  </separator>
  <separator name="ionic" >
   <i type="int" name="NSW">    10</i>
   <i type="int" name="IBRION">     2</i>
   <i type="int" name="ISIF">     2</i>
   <i name="PSTRESS">      0.00000000</i>
   <i name="EDIFFG">      0.00100000</i>
   <i type="int" name="NFREE">     1</i>
   <i name="POTIM">      0.50000000</i>
   <i name="SMASS">     -3.00000000</i>
   <i name="SCALEE">      1.00000000</i>
  </separator>
  <separator name="ionic md" >
   <i name="TEBEG">      0.00010000</i>
   <i name="TEEND">      0.00010000</i>
   <i type="int" name="NBLOCK">     1</i>
   <i type="int" name="KBLOCK">    10</i>
   <i type="int" name="NPACO">   256</i>
   <i name="APACO">     16.00000000</i>
  </separator>
  <separator name="symmetry" >
   <i type="int" name="ISYM">     2</i>
   <i name="SYMPREC">      0.00001000</i>
  </separator>
  <separator name="dos" >
   <i type="logical" name="LORBIT"> F  </i>
   <v name="RWIGS">     -1.00000000     -1.00000000</v>
   <i type="int" name="NEDOS">   301</i>
   <i name="EMIN">     10.00000000</i>
   <i name="EMAX">    -10.00000000</i>
   <i name="EFERMI">      0.00000000</i>
  </separator>
  <separator name="writing" >
   <i type="int" name="NWRITE">     2</i>
   <i type="logical" name="LWAVE"> T  </i>
   <i type="logical" name="LCHARG"> T  </i>
   <i type="logical" name="LPARD"> F  </i>
   <i type="logical" name="LVTOT"> F  </i>
   <i type="logical" name="LVHAR"> F  </i>
   <i type="logical" name="LELF"> F  </i>
   <i type="logical" name="LOPTICS"> F  </i>
   <v name="STM">      0.00000000      0.00000000      0.00000000      0.00000000      0.00000000      0.00000000      0.00000000</v>
  </separator>
  <separator name="performance" >
   <i type="int" name="NPAR">     1</i>
   <i type="int" name="NSIM">     4</i>
   <i type="int" name="NBLK">    -1</i>
   <i type="logical" name="LPLANE"> T  </i>
   <i type="logical" name="LSCALAPACK"> F  </i>
   <i type="logical" name="LSCAAWARE"> F  </i>
   <i type="logical" name="LSCALU"> F  </i>
   <i type="logical" name="LASYNC"> F  </i>
   <i type="logical" name="LORBITALREAL"> F  </i>
  </separator>
  <separator name="miscellaneous" >
   <i type="int" name="IDIOT">     3</i>
   <i type="logical" name="LMUSIC"> F  </i>
   <v name="POMASS">      1.00000000     12.01100000</v>
   <v name="DARWINR">      0.00000000      0.00000000</v>
   <v name="DARWINV">      1.00000000      1.00000000</v>
   <i type="logical" name="LCORR"> T  </i>
  </separator>
  <i type="logical" name="GGA_COMPAT"> T  </i>
  <i type="logical" name="LBERRY"> F  </i>
  <i type="int" name="ICORELEVEL">     0</i>
  <i type="logical" name="LDAU"> F  </i>
  <i type="int" name="I_CONSTRAINED_M">     0</i>
  <separator name="electronic exchange-correlation" >
   <i type="string" name="GGA">--</i>
   <i type="int" name="VOSKOWN">     0</i>
   <i type="logical" name="LHFCALC"> F  </i>
   <i type="string" name="PRECFOCK"></i>
   <i type="logical" name="LHFONE"> F  </i>
   <i type="logical" name="LRHFCALC"> F  </i>
   <i type="logical" name="LTHOMAS"> F  </i>
   <i type="logical" name="LMODELHF"> F  </i>
   <i name="ENCUT4O">     -1.00000000</i>
   <i type="int" name="EXXOEP">     0</i>
   <i type="int" name="FOURORBIT">     0</i>
   <i name="AEXX">      0.00000000</i>
   <i name="HFALPHA">      0.00000000</i>
   <i name="ALDAX">      1.00000000</i>
   <i name="AGGAX">      1.00000000</i>
   <i name="ALDAC">      1.00000000</i>
   <i name="AGGAC">      1.00000000</i>
   <i type="int" name="NKREDX">     1</i>
   <i type="int" name="NKREDY">     1</i>
   <i type="int" name="NKREDZ">     1</i>
   <i type="logical" name="SHIFTRED"> F  </i>
   <i type="logical" name="ODDONLY"> F  </i>
   <i type="logical" name="EVENONLY"> F  </i>
   <i type="int" name="LMAXFOCK">     0</i>
   <i type="int" name="NMAXFOCKAE">     0</i>
   <i type="logical" name="LFOCKAEDFT"> F  </i>
   <i name="HFSCREEN">      0.00000000</i>
   <i name="HFSCREENC">      0.00000000</i>
  </separator>
  <separator name="vdW DFT" >
   <i type="logical" name="LUSE_VDW"> F  </i>
   <i name="Zab_VDW">     -0.84910000</i>
   <i name="PARAM1">      0.12340000</i>
   <i name="PARAM2">      1.00000000</i>
   <i name="PARAM3">      0.00000000</i>
  </separator>
  <separator name="model GW" >
   <i type="int" name="MODEL_GW">     0</i>
   <i name="MODEL_EPS0">     76.80000000</i>
   <i name="MODEL_ALPHA">      1.00000000</i>
  </separator>
  <separator name="linear response parameters" >
   <i type="logical" name="LEPSILON"> F  </i>
   <i type="logical" name="LRPA"> F  </i>
   <i type="logical" name="LNABLA"> F  </i>
   <i type="logical" name="LVEL"> F  </i>
   <i type="int" name="KINTER">     0</i>
   <i name="CSHIFT">      0.10000000</i>
   <i name="OMEGAMAX">     -1.00000000</i>
  </separator>
  <separator name="orbital magnetization" >
   <i type="logical" name="NUCIND"> F  </i>
   <v name="MAGPOS">      0.00000000      0.00000000      0.00000000</v>
   <i type="logical" name="LNICSALL"> T  </i>
   <i type="logical" name="ORBITALMAG"> F  </i>
   <i type="logical" name="LMAGBLOCH"> F  </i>
   <i type="logical" name="LCHIMAG"> F  </i>
   <i type="logical" name="LGAUGE"> T  </i>
   <i type="int" name="MAGATOM">     0</i>
   <v name="MAGDIPOL">      0.00000000      0.00000000      0.00000000</v>
   <v name="AVECCONST">      0.00000000      0.00000000      0.00000000</v>
  </separator>
  <separator name="response functions" >
   <i type="logical" name="LADDER"> F  </i>
   <i type="logical" name="LHARTREE"> T  </i>
   <i type="int" name="IBSE">     0</i>
   <i type="logical" name="LTCTE"> F  </i>
   <i type="logical" name="LTETE"> F  </i>
   <i type="logical" name="LFXCEPS"> F  </i>
   <i type="logical" name="L2ORDER"> F  </i>
   <i type="logical" name="LUSEW"> F  </i>
   <i name="ENCUTGW">     -2.00000000</i>
   <i name="ENCUTGWSOFT">     -2.00000000</i>
   <i name="ENCUTLF">     -1.00000000</i>
   <i type="int" name="LMAXMP2">    -1</i>
   <i name="SCISSOR">      0.00000000</i>
   <i type="int" name="NOMEGA">     0</i>
   <i type="int" name="NOMEGAR">     0</i>
   <i type="int" name="NBANDSGW">    -1</i>
   <i type="int" name="NBANDSO">    -1</i>
   <i type="int" name="NBANDSV">    -1</i>
   <i name="OPTEMAX">      0.00000000</i>
   <i type="int" name="NELM">     1</i>
   <i type="int" name="DIM">     3</i>
   <i type="int" name="ANTIRES">     0</i>
   <i name="OMEGAMAX">    -30.00000000</i>
   <i name="OMEGATL">   -200.00000000</i>
   <i type="int" name="OMEGAGRID">     0</i>
   <i name="CSHIFT">     -0.10000000</i>
   <i type="logical" name="SELFENERGY"> F  </i>
   <i type="logical" name="LSPECTRAL"> F  </i>
   <i type="logical" name="ODDONLYGW"> F  </i>
   <i type="logical" name="EVENONLYGW"> F  </i>
   <i type="int" name="NKREDLFX">     1</i>
   <i type="int" name="NKREDLFY">     1</i>
   <i type="int" name="NKREDLFZ">     1</i>
   <i type="int" name="MAXMEM">  1800</i>
   <i type="int" name="TELESCOPE">     0</i>
  </separator>
 </parameters>
 <atominfo>
  <atoms>       4 </atoms>
  <types>       2 </types>
  <array name="atoms" >
   <dimension dim="1">ion</dimension>
   <field type="string">element</field>
   <field type="int">atomtype</field>
   <set>
    <rc><c>H </c><c>   1</c></rc>
    <rc><c>H </c><c>   1</c></rc>
    <rc><c>C </c><c>   2</c></rc>
    <rc><c>C </c><c>   2</c></rc>
   </set>
  </array>
  <array name="atomtypes" >
   <dimension dim="1">type</dimension>
   <field type="int">atomspertype</field>
   <field type="string">element</field>
   <field>mass</field>
   <field>valence</field>
   <field type="string">pseudopotential</field>
   <set>
    <rc><c>   2</c><c>H </c><c>      1.00000000</c><c>      1.00000000</c><c> PAW_PBE H 15Jun2001                    </c></rc>
    <rc><c>   2</c><c>C </c><c>     12.01100000</c><c>      4.00000000</c><c> PAW_PBE C 08Apr2002                    </c></rc>
   </set>
  </array>
 </atominfo>
 <structure name="initialpos" >
  <crystal>
   <varray name="basis" >
    <v>       8.00000000       0.00000000       0.00000000 </v>
    <v>       0.00000000       8.00000000       0.00000000 </v>
    <v>       0.00000000       0.00000000       8.00000000 </v>
   </varray>
   <i name="volume">    512.00000000 </i>
   <varray name="rec_basis" >
    <v>       0.12500000       0.00000000       0.00000000 </v>
    <v>       0.00000000       0.12500000       0.00000000 </v>
    <v>       0.00000000       0.00000000       0.12500000 </v>
   </varray>
  </crystal>
  <varray name="positions" >
   <v>       0.00000000       0.00000000       0.79075125 </v>
   <v>       0.00000000       0.00000000       0.20924875 </v>
   <v>       0.00000000       0.00000000       0.07601000 </v>
   <v>       0.00000000       0.00000000       0.92399000 </v>
  </varray>
 </structure>
 <calculation>
  <scstep>
   <time name="dav">    0.42    0.42</time>
   <time name="total">    1.38    1.38</time>
   <energy>
    <i name="alphaZ">      0.89086884 </i>
    <i name="ewald">    102.54077057 </i>
    <i name="hartreedc">   -317.70358761 </i>
    <i name="XCdc">     30.23698448 </i>
    <i name="pawpsdc">     77.22553761 </i>
    <i name="pawaedc">    -79.54451240 </i>
    <i name="eentropy">      0.00000000 </i>
    <i name="bandstr">    -94.21127817 </i>
    <i name="atom">    319.25655240 </i>
    <i name="e_fr_energy">     38.69133572 </i>
    <i name="e_wo_entrp">     38.69133572 </i>
    <i name="e_0_energy">     38.69133572 </i>
   </energy>
  </scstep>
  <scstep>
   <time name="dav">    0.75    0.75</time>
   <time name="total">    0.75    0.78</time>
   <energy>
    <i name="e_fr_energy">    -20.80399927 </i>
    <i name="e_wo_entrp">    -20.80399927 </i>
    <i name="e_0_energy">    -20.80399927 </i>
   </energy>
  </scstep>
  <scstep>
   <time name="dav">    0.76    0.76</time>
   <time name="total">    0.76    0.78</time>
   <energy>
    <i name="e_fr_energy">    -26.38991993 </i>
    <i name="e_wo_entrp">    -26.38991993 </i>
    <i name="e_0_energy">    -26.38991993 </i>
   </energy>
  </scstep>
  <scstep>
   <time name="dav">    0.61    0.61</time>
   <time name="total">    0.61    0.67</time>
   <energy>
    <i name="e_fr_energy">    -26.42721642 </i>
    <i name="e_wo_entrp">    -26.42721642 </i>
    <i name="e_0_energy">    -26.42721642 </i>
   </energy>
  </scstep>
  <scstep>
   <time name="dav">    0.47    0.47</time>
   <time name="total">    0.64    0.72</time>
   <energy>
    <i name="e_fr_energy">    -26.42729625 </i>
    <i name="e_wo_entrp">    -26.42729625 </i>
    <i name="e_0_energy">    -26.42729625 </i>
   </energy>
  </scstep>
  <scstep>
   <time name="dav">    0.45    0.45</time>
   <time name="total">    1.64    1.77</time>
   <energy>
    <i name="e_fr_energy">    -23.55725223 </i>
    <i name="e_wo_entrp">    -23.55725223 </i>
    <i name="e_0_energy">    -23.55725223 </i>
   </energy>
  </scstep>
  <scstep>
   <time name="dav">    0.61    0.61</time>
   <time name="total">    1.79    1.82</time>
   <energy>
    <i name="e_fr_energy">    -22.96929619 </i>
    <i name="e_wo_entrp">    -22.96929619 </i>
    <i name="e_0_energy">    -22.96929619 </i>
   </energy>
  </scstep>
  <scstep>
   <time name="dav">    0.47    0.47</time>
   <time name="total">    1.64    1.78</time>
   <energy>
    <i name="e_fr_energy">    -22.92415754 </i>
    <i name="e_wo_entrp">    -22.92415754 </i>
    <i name="e_0_energy">    -22.92415754 </i>
   </energy>
  </scstep>
  <scstep>
   <time name="dav">    0.61    0.61</time>
   <time name="total">    1.78    1.84</time>
   <energy>
    <i name="e_fr_energy">    -22.91369677 </i>
    <i name="e_wo_entrp">    -22.91369677 </i>
    <i name="e_0_energy">    -22.91369677 </i>
   </energy>
  </scstep>
  <scstep>
   <time name="dav">    0.44    0.44</time>
   <time name="total">    1.59    1.67</time>
   <energy>
    <i name="e_fr_energy">    -22.91604284 </i>
    <i name="e_wo_entrp">    -22.91604284 </i>
    <i name="e_0_energy">    -22.91604284 </i>
   </energy>
  </scstep>
  <scstep>
   <time name="dav">    0.45    0.45</time>
   <time name="total">    1.60    1.65</time>
   <energy>
    <i name="e_fr_energy">    -22.92035848 </i>
    <i name="e_wo_entrp">    -22.92035848 </i>
    <i name="e_0_energy">    -22.92035848 </i>
   </energy>
  </scstep>
  <scstep>
   <time name="dav">    0.45    0.45</time>
   <time name="total">    1.60    1.90</time>
   <energy>
    <i name="e_fr_energy">    -22.92483393 </i>
    <i name="e_wo_entrp">    -22.92483393 </i>
    <i name="e_0_energy">    -22.92483393 </i>
   </energy>
  </scstep>
  <scstep>
   <time name="dav">    0.45    0.45</time>
   <time name="total">    1.60    1.70</time>
   <energy>
    <i name="e_fr_energy">    -22.92625161 </i>
    <i name="e_wo_entrp">    -22.92625161 </i>
    <i name="e_0_energy">    -22.92625161 </i>
   </energy>
  </scstep>
  <scstep>
   <time name="dav">    0.46    0.46</time>
   <time name="total">    1.70    1.77</time>
   <energy>
    <i name="e_fr_energy">    -22.92679528 </i>
    <i name="e_wo_entrp">    -22.92679528 </i>
    <i name="e_0_energy">    -22.92679528 </i>
   </energy>
  </scstep>
  <scstep>
   <time name="dav">    0.48    0.48</time>
   <time name="total">    1.72    1.76</time>
   <energy>
    <i name="e_fr_energy">    -22.92691898 </i>
    <i name="e_wo_entrp">    -22.92691898 </i>
    <i name="e_0_energy">    -22.92691898 </i>
   </energy>
  </scstep>
  <scstep>
   <time name="dav">    0.47    0.47</time>
   <time name="total">    1.54    1.59</time>
   <energy>
    <i name="alphaZ">      0.89086884 </i>
    <i name="ewald">    102.54077057 </i>
    <i name="hartreedc">   -360.60996578 </i>
    <i name="XCdc">     32.76408182 </i>
    <i name="pawpsdc">    148.51973567 </i>
    <i name="pawaedc">   -151.18289653 </i>
    <i name="eentropy">      0.00000000 </i>
    <i name="bandstr">   -115.10608044 </i>
    <i name="atom">    319.25655240 </i>
    <i name="e_fr_energy">    -22.92693345 </i>
    <i name="e_wo_entrp">    -22.92693345 </i>
    <i name="e_0_energy">    -22.92693345 </i>
   </energy>
  </scstep>
  <parameters_embedded>
   <separator name="dft+d2" >
    <i type="logical" name="LVDW"> F  </i>
   </separator>
  </parameters_embedded>
  <structure>
   <crystal>
    <varray name="basis" >
     <v>       8.00000000       0.00000000       0.00000000 </v>
     <v>       0.00000000       8.00000000       0.00000000 </v>
     <v>       0.00000000       0.00000000       8.00000000 </v>
    </varray>
    <i name="volume">    512.00000000 </i>
    <varray name="rec_basis" >
     <v>       0.12500000       0.00000000       0.00000000 </v>
     <v>       0.00000000       0.12500000       0.00000000 </v>
     <v>       0.00000000       0.00000000       0.12500000 </v>
    </varray>
   </crystal>
   <varray name="positions" >
    <v>       0.00000000       0.00000000       0.79075125 </v>
    <v>       0.00000000       0.00000000       0.20924875 </v>
    <v>       0.00000000       0.00000000       0.07601000 </v>
    <v>       0.00000000       0.00000000       0.92399000 </v>
   </varray>
  </structure>
  <varray name="forces" >
   <v>       0.00000000       0.00000000      -0.17554818 </v>
   <v>       0.00000000       0.00000000       0.17554818 </v>
   <v>       0.00000000       0.00000000      -1.05795852 </v>
   <v>       0.00000000       0.00000000       1.05795852 </v>
  </varray>
  <varray name="stress" >
   <v>      -0.37325340       0.00000000       0.00000000 </v>
   <v>       0.00000000      -0.37325340       0.00000000 </v>
   <v>       0.00000000       0.00000000      -2.51212265 </v>
  </varray>
  <energy>
   <i name="e_fr_energy">    -22.92693345 </i>
   <i name="e_wo_entrp">    -22.92693345 </i>
   <i name="e_0_energy">      0.00000000 </i>
  </energy>
  <time name="totalsc">   25.69   27.21</time>
 </calculation>
 <calculation>
  <scstep>
   <time name="dav">    0.50    0.50</time>
   <time name="total">    1.86    1.95</time>
   <energy>
    <i name="alphaZ">      0.89086884 </i>
    <i name="ewald">    114.84612895 </i>
    <i name="hartreedc">   -367.86077058 </i>
    <i name="XCdc">     32.98951091 </i>
    <i name="pawpsdc">    148.52029337 </i>
    <i name="pawaedc">   -151.18346353 </i>
    <i name="eentropy">      0.00000000 </i>
    <i name="bandstr">   -119.85680777 </i>
    <i name="atom">    319.25655240 </i>
    <i name="e_fr_energy">    -22.39768741 </i>
    <i name="e_wo_entrp">    -22.39768741 </i>
    <i name="e_0_energy">    -22.39768741 </i>
   </energy>
  </scstep>
  <scstep>
   <time name="dav">    0.66    0.67</time>
   <time name="total">    2.05    2.05</time>
   <energy>
    <i name="e_fr_energy">    -22.30443471 </i>
    <i name="e_wo_entrp">    -22.30443471 </i>
    <i name="e_0_energy">    -22.30443471 </i>
   </energy>
  </scstep>
  <scstep>
   <time name="dav">    0.69    0.69</time>
   <time name="total">    2.08    2.10</time>
   <energy>
    <i name="e_fr_energy">    -22.28474426 </i>
    <i name="e_wo_entrp">    -22.28474426 </i>
    <i name="e_0_energy">    -22.28474426 </i>
   </energy>
  </scstep>
  <scstep>
   <time name="dav">    0.50    0.50</time>
   <time name="total">    1.90    1.91</time>
   <energy>
    <i name="e_fr_energy">    -22.28146606 </i>
    <i name="e_wo_entrp">    -22.28146606 </i>
    <i name="e_0_energy">    -22.28146606 </i>
   </energy>
  </scstep>
  <scstep>
   <time name="dav">    0.50    0.50</time>
   <time name="total">    1.89    1.91</time>
   <energy>
    <i name="e_fr_energy">    -22.28151687 </i>
    <i name="e_wo_entrp">    -22.28151687 </i>
    <i name="e_0_energy">    -22.28151687 </i>
   </energy>
  </scstep>
  <scstep>
   <time name="dav">    0.52    0.52</time>
   <time name="total">    1.71    2.70</time>
   <energy>
    <i name="alphaZ">      0.89086884 </i>
    <i name="ewald">    114.84612895 </i>
    <i name="hartreedc">   -372.64532640 </i>
    <i name="XCdc">     33.20975788 </i>
    <i name="pawpsdc">    165.29026836 </i>
    <i name="pawaedc">   -168.04348335 </i>
    <i name="eentropy">      0.00000000 </i>
    <i name="bandstr">   -115.08636421 </i>
    <i name="atom">    319.25655240 </i>
    <i name="e_fr_energy">    -22.28159752 </i>
    <i name="e_wo_entrp">    -22.28159752 </i>
    <i name="e_0_energy">    -22.28159752 </i>
   </energy>
  </scstep>
  <structure>
   <crystal>
    <varray name="basis" >
     <v>       8.00000000       0.00000000       0.00000000 </v>
     <v>       0.00000000       8.00000000       0.00000000 </v>
     <v>       0.00000000       0.00000000       8.00000000 </v>
    </varray>
    <i name="volume">    512.00000000 </i>
    <varray name="rec_basis" >
     <v>       0.12500000       0.00000000       0.00000000 </v>
     <v>       0.00000000       0.12500000       0.00000000 </v>
     <v>       0.00000000       0.00000000       0.12500000 </v>
    </varray>
   </crystal>
   <varray name="positions" >
    <v>       0.00000000       0.00000000       0.78969264 </v>
    <v>       0.00000000       0.00000000       0.21030736 </v>
    <v>       0.00000000       0.00000000       0.06963016 </v>
    <v>       0.00000000       0.00000000       0.93036984 </v>
   </varray>
  </structure>
  <varray name="forces" >
   <v>       0.00000000       0.00000000       1.87143437 </v>
   <v>       0.00000000       0.00000000      -1.87143437 </v>
   <v>       0.00000000       0.00000000      14.52104113 </v>
   <v>       0.00000000       0.00000000     -14.52104113 </v>
  </varray>
  <varray name="stress" >
   <v>      -0.08870781       0.00000000       0.00000000 </v>
   <v>       0.00000000      -0.08870781       0.00000000 </v>
   <v>       0.00000000       0.00000000      30.86759894 </v>
  </varray>
  <energy>
   <i name="e_fr_energy">    -22.28159752 </i>
   <i name="e_wo_entrp">    -22.28159752 </i>
   <i name="e_0_energy">      0.00000000 </i>
  </energy>
  <time name="totalsc">   13.92   15.43</time>
 </calculation>
 <calculation>
  <scstep>
   <time name="dav">    0.49    0.49</time>
   <time name="total">    1.87    1.87</time>
   <energy>
    <i name="alphaZ">      0.89086884 </i>
    <i name="ewald">    103.43775185 </i>
    <i name="hartreedc">   -365.81732540 </i>
    <i name="XCdc">     32.99316293 </i>
    <i name="pawpsdc">    165.54406561 </i>
    <i name="pawaedc">   -168.29892294 </i>
    <i name="eentropy">      0.00000000 </i>
    <i name="bandstr">   -111.03631103 </i>
    <i name="atom">    319.25655240 </i>
    <i name="e_fr_energy">    -23.03015772 </i>
    <i name="e_wo_entrp">    -23.03015772 </i>
    <i name="e_0_energy">    -23.03015772 </i>
   </energy>
  </scstep>
  <scstep>
   <time name="dav">    0.61    0.62</time>
   <time name="total">    1.82    2.67</time>
   <energy>
    <i name="e_fr_energy">    -22.94964348 </i>
    <i name="e_wo_entrp">    -22.94964348 </i>
    <i name="e_0_energy">    -22.94964348 </i>
   </energy>
  </scstep>
  <scstep>
   <time name="dav">    0.46    0.46</time>
   <time name="total">    1.60    1.64</time>
   <energy>
    <i name="e_fr_energy">    -22.93217889 </i>
    <i name="e_wo_entrp">    -22.93217889 </i>
    <i name="e_0_energy">    -22.93217889 </i>
   </energy>
  </scstep>
  <scstep>
   <time name="dav">    0.47    0.49</time>
   <time name="total">    1.63    1.67</time>
   <energy>
    <i name="e_fr_energy">    -22.93237085 </i>
    <i name="e_wo_entrp">    -22.93237085 </i>
    <i name="e_0_energy">    -22.93237085 </i>
   </energy>
  </scstep>
  <scstep>
   <time name="dav">    0.46    0.46</time>
   <time name="total">    1.63    1.65</time>
   <energy>
    <i name="e_fr_energy">    -22.93137278 </i>
    <i name="e_wo_entrp">    -22.93137278 </i>
    <i name="e_0_energy">    -22.93137278 </i>
   </energy>
  </scstep>
  <scstep>
   <time name="dav">    0.48    0.48</time>
   <time name="total">    1.46    1.48</time>
   <energy>
    <i name="alphaZ">      0.89086884 </i>
    <i name="ewald">    103.43775185 </i>
    <i name="hartreedc">   -361.59966868 </i>
    <i name="XCdc">     32.79833610 </i>
    <i name="pawpsdc">    149.67824158 </i>
    <i name="pawaedc">   -152.34627795 </i>
    <i name="eentropy">      0.00000000 </i>
    <i name="bandstr">   -115.04724168 </i>
    <i name="atom">    319.25655240 </i>
    <i name="e_fr_energy">    -22.93143753 </i>
    <i name="e_wo_entrp">    -22.93143753 </i>
    <i name="e_0_energy">    -22.93143753 </i>
   </energy>
  </scstep>
  <structure>
   <crystal>
    <varray name="basis" >
     <v>       8.00000000       0.00000000       0.00000000 </v>
     <v>       0.00000000       8.00000000       0.00000000 </v>
     <v>       0.00000000       0.00000000       8.00000000 </v>
    </varray>
    <i name="volume">    512.00000000 </i>
    <varray name="rec_basis" >
     <v>       0.12500000       0.00000000       0.00000000 </v>
     <v>       0.00000000       0.12500000       0.00000000 </v>
     <v>       0.00000000       0.00000000       0.12500000 </v>
    </varray>
   </crystal>
   <varray name="positions" >
    <v>       0.00000000       0.00000000       0.79066201 </v>
    <v>       0.00000000       0.00000000       0.20933799 </v>
    <v>       0.00000000       0.00000000       0.07547219 </v>
    <v>       0.00000000       0.00000000       0.92452781 </v>
   </varray>
  </structure>
  <varray name="forces" >
   <v>       0.00000000       0.00000000       0.02428911 </v>
   <v>       0.00000000       0.00000000      -0.02428911 </v>
   <v>       0.00000000       0.00000000       0.00163156 </v>
   <v>       0.00000000       0.00000000      -0.00163156 </v>
  </varray>
  <varray name="stress" >
   <v>      -0.34669550       0.00000000       0.00000000 </v>
   <v>       0.00000000      -0.34669550       0.00000000 </v>
   <v>       0.00000000       0.00000000      -0.54476589 </v>
  </varray>
  <energy>
   <i name="e_fr_energy">    -22.93143753 </i>
   <i name="e_wo_entrp">    -22.93143753 </i>
   <i name="e_0_energy">      0.00000000 </i>
  </energy>
  <time name="totalsc">   12.00   13.17</time>
  <eigenvalues>
   <array>
    <dimension dim="1">band</dimension>
    <dimension dim="2">kpoint</dimension>
    <dimension dim="3">spin</dimension>
    <field>eigene</field>
    <field>occ</field>
    <set>
     <set comment="spin 1">
      <set comment="kpoint 1">
       <r>  -18.2709    1.0000 </r>
       <r>  -13.7051    1.0000 </r>
       <r>  -11.8301    1.0000 </r>
       <r>   -6.8588    1.0000 </r>
       <r>   -6.8588    1.0000 </r>
       <r>   -0.3809    0.0000 </r>
       <r>   -0.0573    0.0000 </r>
       <r>   -0.0573    0.0000 </r>
       <r>    1.0594    0.0000 </r>
      </set>
     </set>
    </set>
   </array>
  </eigenvalues>
  <separator name="orbital magnetization" >
   <v name="MAGDIPOLOUT">      0.00000000      0.00000000      0.00000000</v>
  </separator>
  <dos>
   <i name="efermi">     -5.88375466 </i>
   <total>
    <array>
     <dimension dim="1">gridpoints</dimension>
     <dimension dim="2">spin</dimension>
     <field>energy</field>
     <field>total</field>
     <field>integrated</field>
     <set>
      <set comment="spin 1">
       <r>   -20.2709     0.0000     0.0000 </r>
       <r>   -20.1931     0.0000     0.0000 </r>
       <r>   -20.1154     0.0000     0.0000 </r>
       <r>   -20.0376     0.0000     0.0000 </r>
       <r>   -19.9598     0.0000     0.0000 </r>
       <r>   -19.8821     0.0000     0.0000 </r>
       <r>   -19.8043     0.0000     0.0000 </r>
       <r>   -19.7265     0.0000     0.0000 </r>
       <r>   -19.6488     0.0000     0.0000 </r>
       <r>   -19.5710     0.0000     0.0000 </r>
       <r>   -19.4932     0.0000     0.0000 </r>
       <r>   -19.4155     0.0000     0.0000 </r>
       <r>   -19.3377     0.0000     0.0000 </r>
       <r>   -19.2599     0.0000     0.0000 </r>
       <r>   -19.1822     0.0000     0.0000 </r>
       <r>   -19.1044     0.0000     0.0000 </r>
       <r>   -19.0266     0.0000     0.0000 </r>
       <r>   -18.9488     0.0000     0.0000 </r>
       <r>   -18.8711     0.0003     0.0000 </r>
       <r>   -18.7933     0.0026     0.0002 </r>
       <r>   -18.7155     0.0186     0.0017 </r>
       <r>   -18.6378     0.1005     0.0095 </r>
       <r>   -18.5600     0.4043     0.0409 </r>
       <r>   -18.4822     1.2105     0.1351 </r>
       <r>   -18.4045     2.6982     0.3449 </r>
       <r>   -18.3267     4.4776     0.6931 </r>
       <r>   -18.2489     5.5328     1.1234 </r>
       <r>   -18.1712     5.0909     1.5193 </r>
       <r>   -18.0934     3.4880     1.7905 </r>
       <r>   -18.0156     1.7794     1.9289 </r>
       <r>   -17.9379     0.6758     1.9815 </r>
       <r>   -17.8601     0.1910     1.9963 </r>
       <r>   -17.7823     0.0402     1.9994 </r>
       <r>   -17.7046     0.0063     1.9999 </r>
       <r>   -17.6268     0.0007     2.0000 </r>
       <r>   -17.5490     0.0001     2.0000 </r>
       <r>   -17.4713     0.0000     2.0000 </r>
       <r>   -17.3935     0.0000     2.0000 </r>
       <r>   -17.3157     0.0000     2.0000 </r>
       <r>   -17.2380     0.0000     2.0000 </r>
       <r>   -17.1602     0.0000     2.0000 </r>
       <r>   -17.0824     0.0000     2.0000 </r>
       <r>   -17.0047     0.0000     2.0000 </r>
       <r>   -16.9269     0.0000     2.0000 </r>
       <r>   -16.8491     0.0000     2.0000 </r>
       <r>   -16.7714     0.0000     2.0000 </r>
       <r>   -16.6936     0.0000     2.0000 </r>
       <r>   -16.6158     0.0000     2.0000 </r>
       <r>   -16.5381     0.0000     2.0000 </r>
       <r>   -16.4603     0.0000     2.0000 </r>
       <r>   -16.3825     0.0000     2.0000 </r>
       <r>   -16.3048     0.0000     2.0000 </r>
       <r>   -16.2270     0.0000     2.0000 </r>
       <r>   -16.1492     0.0000     2.0000 </r>
       <r>   -16.0715     0.0000     2.0000 </r>
       <r>   -15.9937     0.0000     2.0000 </r>
       <r>   -15.9159     0.0000     2.0000 </r>
       <r>   -15.8381     0.0000     2.0000 </r>
       <r>   -15.7604     0.0000     2.0000 </r>
       <r>   -15.6826     0.0000     2.0000 </r>
       <r>   -15.6048     0.0000     2.0000 </r>
       <r>   -15.5271     0.0000     2.0000 </r>
       <r>   -15.4493     0.0000     2.0000 </r>
       <r>   -15.3715     0.0000     2.0000 </r>
       <r>   -15.2938     0.0000     2.0000 </r>
       <r>   -15.2160     0.0000     2.0000 </r>
       <r>   -15.1382     0.0000     2.0000 </r>
       <r>   -15.0605     0.0000     2.0000 </r>
       <r>   -14.9827     0.0000     2.0000 </r>
       <r>   -14.9049     0.0000     2.0000 </r>
       <r>   -14.8272     0.0000     2.0000 </r>
       <r>   -14.7494     0.0000     2.0000 </r>
       <r>   -14.6716     0.0000     2.0000 </r>
       <r>   -14.5939     0.0000     2.0000 </r>
       <r>   -14.5161     0.0000     2.0000 </r>
       <r>   -14.4383     0.0000     2.0000 </r>
       <r>   -14.3606     0.0000     2.0000 </r>
       <r>   -14.2828     0.0005     2.0000 </r>
       <r>   -14.2050     0.0047     2.0004 </r>
       <r>   -14.1273     0.0312     2.0028 </r>
       <r>   -14.0495     0.1550     2.0149 </r>
       <r>   -13.9717     0.5726     2.0594 </r>
       <r>   -13.8940     1.5740     2.1818 </r>
       <r>   -13.8162     3.2209     2.4323 </r>
       <r>   -13.7384     4.9074     2.8139 </r>
       <r>   -13.6607     5.5673     3.2469 </r>
       <r>   -13.5829     4.7032     3.6127 </r>
       <r>   -13.5051     2.9585     3.8427 </r>
       <r>   -13.4274     1.3856     3.9505 </r>
       <r>   -13.3496     0.4831     3.9881 </r>
       <r>   -13.2718     0.1253     3.9978 </r>
       <r>   -13.1941     0.0242     3.9997 </r>
       <r>   -13.1163     0.0035     4.0000 </r>
       <r>   -13.0385     0.0004     4.0000 </r>
       <r>   -12.9608     0.0000     4.0000 </r>
       <r>   -12.8830     0.0000     4.0000 </r>
       <r>   -12.8052     0.0000     4.0000 </r>
       <r>   -12.7274     0.0000     4.0000 </r>
       <r>   -12.6497     0.0000     4.0000 </r>
       <r>   -12.5719     0.0000     4.0000 </r>
       <r>   -12.4941     0.0000     4.0000 </r>
       <r>   -12.4164     0.0004     4.0000 </r>
       <r>   -12.3386     0.0037     4.0003 </r>
       <r>   -12.2608     0.0257     4.0023 </r>
       <r>   -12.1831     0.1316     4.0126 </r>
       <r>   -12.1053     0.5024     4.0516 </r>
       <r>   -12.0275     1.4271     4.1626 </r>
       <r>   -11.9498     3.0178     4.3973 </r>
       <r>   -11.8720     4.7514     4.7668 </r>
       <r>   -11.7942     5.5703     5.2000 </r>
       <r>   -11.7165     4.8628     5.5782 </r>
       <r>   -11.6387     3.1611     5.8240 </r>
       <r>   -11.5609     1.5299     5.9430 </r>
       <r>   -11.4832     0.5512     5.9858 </r>
       <r>   -11.4054     0.1478     5.9973 </r>
       <r>   -11.3276     0.0295     5.9996 </r>
       <r>   -11.2499     0.0044     6.0000 </r>
       <r>   -11.1721     0.0005     6.0000 </r>
       <r>   -11.0943     0.0000     6.0000 </r>
       <r>   -11.0166     0.0000     6.0000 </r>
       <r>   -10.9388     0.0000     6.0000 </r>
       <r>   -10.8610     0.0000     6.0000 </r>
       <r>   -10.7833     0.0000     6.0000 </r>
       <r>   -10.7055     0.0000     6.0000 </r>
       <r>   -10.6277     0.0000     6.0000 </r>
       <r>   -10.5500     0.0000     6.0000 </r>
       <r>   -10.4722     0.0000     6.0000 </r>
       <r>   -10.3944     0.0000     6.0000 </r>
       <r>   -10.3167     0.0000     6.0000 </r>
       <r>   -10.2389     0.0000     6.0000 </r>
       <r>   -10.1611     0.0000     6.0000 </r>
       <r>   -10.0834     0.0000     6.0000 </r>
       <r>   -10.0056     0.0000     6.0000 </r>
       <r>    -9.9278     0.0000     6.0000 </r>
       <r>    -9.8500     0.0000     6.0000 </r>
       <r>    -9.7723     0.0000     6.0000 </r>
       <r>    -9.6945     0.0000     6.0000 </r>
       <r>    -9.6167     0.0000     6.0000 </r>
       <r>    -9.5390     0.0000     6.0000 </r>
       <r>    -9.4612     0.0000     6.0000 </r>
       <r>    -9.3834     0.0000     6.0000 </r>
       <r>    -9.3057     0.0000     6.0000 </r>
       <r>    -9.2279     0.0000     6.0000 </r>
       <r>    -9.1501     0.0000     6.0000 </r>
       <r>    -9.0724     0.0000     6.0000 </r>
       <r>    -8.9946     0.0000     6.0000 </r>
       <r>    -8.9168     0.0000     6.0000 </r>
       <r>    -8.8391     0.0000     6.0000 </r>
       <r>    -8.7613     0.0000     6.0000 </r>
       <r>    -8.6835     0.0000     6.0000 </r>
       <r>    -8.6058     0.0000     6.0000 </r>
       <r>    -8.5280     0.0000     6.0000 </r>
       <r>    -8.4502     0.0000     6.0000 </r>
       <r>    -8.3725     0.0000     6.0000 </r>
       <r>    -8.2947     0.0000     6.0000 </r>
       <r>    -8.2169     0.0000     6.0000 </r>
       <r>    -8.1392     0.0000     6.0000 </r>
       <r>    -8.0614     0.0000     6.0000 </r>
       <r>    -7.9836     0.0000     6.0000 </r>
       <r>    -7.9059     0.0000     6.0000 </r>
       <r>    -7.8281     0.0000     6.0000 </r>
       <r>    -7.7503     0.0000     6.0000 </r>
       <r>    -7.6726     0.0000     6.0000 </r>
       <r>    -7.5948     0.0000     6.0000 </r>
       <r>    -7.5170     0.0001     6.0000 </r>
       <r>    -7.4393     0.0010     6.0001 </r>
       <r>    -7.3615     0.0087     6.0008 </r>
       <r>    -7.2837     0.0586     6.0053 </r>
       <r>    -7.2060     0.2940     6.0282 </r>
       <r>    -7.1282     1.0975     6.1135 </r>
       <r>    -7.0504     3.0495     6.3507 </r>
       <r>    -6.9727     6.3080     6.8412 </r>
       <r>    -6.8949     9.7150     7.5967 </r>
       <r>    -6.8171    11.1412     8.4632 </r>
       <r>    -6.7393     9.5140     9.2030 </r>
       <r>    -6.6616     6.0496     9.6735 </r>
       <r>    -6.5838     2.8641     9.8962 </r>
       <r>    -6.5060     1.0094     9.9747 </r>
       <r>    -6.4283     0.2648     9.9953 </r>
       <r>    -6.3505     0.0517     9.9993 </r>
       <r>    -6.2727     0.0075     9.9999 </r>
       <r>    -6.1950     0.0008    10.0000 </r>
       <r>    -6.1172     0.0001    10.0000 </r>
       <r>    -6.0394     0.0000    10.0000 </r>
       <r>    -5.9617     0.0000    10.0000 </r>
       <r>    -5.8839     0.0000    10.0000 </r>
       <r>    -5.8061     0.0000    10.0000 </r>
       <r>    -5.7284     0.0000    10.0000 </r>
       <r>    -5.6506     0.0000    10.0000 </r>
       <r>    -5.5728     0.0000    10.0000 </r>
       <r>    -5.4951     0.0000    10.0000 </r>
       <r>    -5.4173     0.0000    10.0000 </r>
       <r>    -5.3395     0.0000    10.0000 </r>
       <r>    -5.2618     0.0000    10.0000 </r>
       <r>    -5.1840     0.0000    10.0000 </r>
       <r>    -5.1062     0.0000    10.0000 </r>
       <r>    -5.0285     0.0000    10.0000 </r>
       <r>    -4.9507     0.0000    10.0000 </r>
       <r>    -4.8729     0.0000    10.0000 </r>
       <r>    -4.7952     0.0000    10.0000 </r>
       <r>    -4.7174     0.0000    10.0000 </r>
       <r>    -4.6396     0.0000    10.0000 </r>
       <r>    -4.5619     0.0000    10.0000 </r>
       <r>    -4.4841     0.0000    10.0000 </r>
       <r>    -4.4063     0.0000    10.0000 </r>
       <r>    -4.3286     0.0000    10.0000 </r>
       <r>    -4.2508     0.0000    10.0000 </r>
       <r>    -4.1730     0.0000    10.0000 </r>
       <r>    -4.0953     0.0000    10.0000 </r>
       <r>    -4.0175     0.0000    10.0000 </r>
       <r>    -3.9397     0.0000    10.0000 </r>
       <r>    -3.8620     0.0000    10.0000 </r>
       <r>    -3.7842     0.0000    10.0000 </r>
       <r>    -3.7064     0.0000    10.0000 </r>
       <r>    -3.6286     0.0000    10.0000 </r>
       <r>    -3.5509     0.0000    10.0000 </r>
       <r>    -3.4731     0.0000    10.0000 </r>
       <r>    -3.3953     0.0000    10.0000 </r>
       <r>    -3.3176     0.0000    10.0000 </r>
       <r>    -3.2398     0.0000    10.0000 </r>
       <r>    -3.1620     0.0000    10.0000 </r>
       <r>    -3.0843     0.0000    10.0000 </r>
       <r>    -3.0065     0.0000    10.0000 </r>
       <r>    -2.9287     0.0000    10.0000 </r>
       <r>    -2.8510     0.0000    10.0000 </r>
       <r>    -2.7732     0.0000    10.0000 </r>
       <r>    -2.6954     0.0000    10.0000 </r>
       <r>    -2.6177     0.0000    10.0000 </r>
       <r>    -2.5399     0.0000    10.0000 </r>
       <r>    -2.4621     0.0000    10.0000 </r>
       <r>    -2.3844     0.0000    10.0000 </r>
       <r>    -2.3066     0.0000    10.0000 </r>
       <r>    -2.2288     0.0000    10.0000 </r>
       <r>    -2.1511     0.0000    10.0000 </r>
       <r>    -2.0733     0.0000    10.0000 </r>
       <r>    -1.9955     0.0000    10.0000 </r>
       <r>    -1.9178     0.0000    10.0000 </r>
       <r>    -1.8400     0.0000    10.0000 </r>
       <r>    -1.7622     0.0000    10.0000 </r>
       <r>    -1.6845     0.0000    10.0000 </r>
       <r>    -1.6067     0.0000    10.0000 </r>
       <r>    -1.5289     0.0000    10.0000 </r>
       <r>    -1.4512     0.0000    10.0000 </r>
       <r>    -1.3734     0.0000    10.0000 </r>
       <r>    -1.2956     0.0000    10.0000 </r>
       <r>    -1.2179     0.0000    10.0000 </r>
       <r>    -1.1401     0.0000    10.0000 </r>
       <r>    -1.0623     0.0000    10.0000 </r>
       <r>    -0.9846     0.0002    10.0000 </r>
       <r>    -0.9068     0.0023    10.0002 </r>
       <r>    -0.8290     0.0171    10.0015 </r>
       <r>    -0.7513     0.0938    10.0088 </r>
       <r>    -0.6735     0.3827    10.0386 </r>
       <r>    -0.5957     1.1633    10.1291 </r>
       <r>    -0.5179     2.6452    10.3348 </r>
       <r>    -0.4402     4.5509    10.6887 </r>
       <r>    -0.3624     6.1380    11.1660 </r>
       <r>    -0.2846     7.1225    11.7199 </r>
       <r>    -0.2069     8.2595    12.3622 </r>
       <r>    -0.1291    10.1132    13.1487 </r>
       <r>    -0.0513    11.5635    14.0480 </r>
       <r>     0.0264    10.8124    14.8888 </r>
       <r>     0.1042     7.7653    15.4927 </r>
       <r>     0.1820     4.1919    15.8187 </r>
       <r>     0.2597     1.6893    15.9501 </r>
       <r>     0.3375     0.5072    15.9895 </r>
       <r>     0.4153     0.1134    15.9983 </r>
       <r>     0.4930     0.0196    15.9999 </r>
       <r>     0.5708     0.0086    16.0005 </r>
       <r>     0.6486     0.0404    16.0037 </r>
       <r>     0.7263     0.1910    16.0185 </r>
       <r>     0.8041     0.6758    16.0711 </r>
       <r>     0.8819     1.7794    16.2095 </r>
       <r>     0.9596     3.4880    16.4807 </r>
       <r>     1.0374     5.0909    16.8766 </r>
       <r>     1.1152     5.5328    17.3069 </r>
       <r>     1.1929     4.4776    17.6551 </r>
       <r>     1.2707     2.6982    17.8649 </r>
       <r>     1.3485     1.2105    17.9591 </r>
       <r>     1.4262     0.4043    17.9905 </r>
       <r>     1.5040     0.1005    17.9983 </r>
       <r>     1.5818     0.0186    17.9998 </r>
       <r>     1.6595     0.0026    18.0000 </r>
       <r>     1.7373     0.0003    18.0000 </r>
       <r>     1.8151     0.0000    18.0000 </r>
       <r>     1.8928     0.0000    18.0000 </r>
       <r>     1.9706     0.0000    18.0000 </r>
       <r>     2.0484     0.0000    18.0000 </r>
       <r>     2.1261     0.0000    18.0000 </r>
       <r>     2.2039     0.0000    18.0000 </r>
       <r>     2.2817     0.0000    18.0000 </r>
       <r>     2.3595     0.0000    18.0000 </r>
       <r>     2.4372     0.0000    18.0000 </r>
       <r>     2.5150     0.0000    18.0000 </r>
       <r>     2.5928     0.0000    18.0000 </r>
       <r>     2.6705     0.0000    18.0000 </r>
       <r>     2.7483     0.0000    18.0000 </r>
       <r>     2.8261     0.0000    18.0000 </r>
       <r>     2.9038     0.0000    18.0000 </r>
       <r>     2.9816     0.0000    18.0000 </r>
       <r>     3.0594     0.0000    18.0000 </r>
      </set>
     </set>
    </array>
   </total>
  </dos>
 </calculation>
 <structure name="finalpos" >
  <crystal>
   <varray name="basis" >
    <v>       8.00000000       0.00000000       0.00000000 </v>
    <v>       0.00000000       8.00000000       0.00000000 </v>
    <v>       0.00000000       0.00000000       8.00000000 </v>
   </varray>
   <i name="volume">    512.00000000 </i>
   <varray name="rec_basis" >
    <v>       0.12500000       0.00000000       0.00000000 </v>
    <v>       0.00000000       0.12500000       0.00000000 </v>
    <v>       0.00000000       0.00000000       0.12500000 </v>
   </varray>
  </crystal>
  <varray name="positions" >
   <v>       0.00000000       0.00000000       0.79066201 </v>
   <v>       0.00000000       0.00000000       0.20933799 </v>
   <v>       0.00000000       0.00000000       0.07547219 </v>
   <v>       0.00000000       0.00000000       0.92452781 </v>
  </varray>
 </structure>
</modeling>
