   4   4   0   0
  0.1280000E+03  0.8000000E-09  0.8000000E-09  0.8000000E-09  0.5000000E-15
  1.000000000000000E-004
  CAR 
 unknown system                          
      3.06328307    -20.30573521  301     -5.89468846      1.00000000
    -20.306  0.0000E+00  0.0000E+00
    -20.228  0.0000E+00  0.0000E+00
    -20.150  0.0000E+00  0.0000E+00
    -20.072  0.0000E+00  0.0000E+00
    -19.994  0.0000E+00  0.0000E+00
    -19.916  0.0000E+00  0.0000E+00
    -19.838  0.0000E+00  0.0000E+00
    -19.760  0.0000E+00  0.0000E+00
    -19.683  0.0000E+00  0.0000E+00
    -19.605  0.0000E+00  0.0000E+00
    -19.527  0.0000E+00  0.0000E+00
    -19.449  0.8551E-15  0.6661E-16
    -19.371  0.6314E-13  0.4985E-14
    -19.293  0.3683E-11  0.2919E-12
    -19.215  0.1593E-09  0.1270E-10
    -19.137  0.5106E-08  0.4104E-09
    -19.059  0.1214E-06  0.9869E-08
    -18.981  0.2143E-05  0.1768E-06
    -18.904  0.2807E-04  0.2363E-05
    -18.826  0.2730E-03  0.2363E-04
    -18.748  0.1972E-02  0.1773E-03
    -18.670  0.1059E-01  0.1002E-02
    -18.592  0.4226E-01  0.4294E-02
    -18.514  0.1254E+00  0.1406E-01
    -18.436  0.2767E+00  0.3562E-01
    -18.358  0.4542E+00  0.7100E-01
    -18.280  0.5546E+00  0.1142E+00
    -18.203  0.5038E+00  0.1534E+00
    -18.125  0.3404E+00  0.1800E+00
    -18.047  0.1711E+00  0.1933E+00
    -17.969  0.6397E-01  0.1983E+00
    -17.891  0.1778E-01  0.1997E+00
    -17.813  0.3674E-02  0.2000E+00
    -17.735  0.5642E-03  0.2000E+00
    -17.657  0.6437E-04  0.2000E+00
    -17.579  0.5454E-05  0.2000E+00
    -17.501  0.3431E-06  0.2000E+00
    -17.424  0.1602E-07  0.2000E+00
    -17.346  0.5546E-09  0.2000E+00
    -17.268  0.1424E-10  0.2000E+00
    -17.190  0.2711E-12  0.2000E+00
    -17.112  0.3991E-14  0.2000E+00
    -17.034  0.0000E+00  0.2000E+00
    -16.956  0.0000E+00  0.2000E+00
    -16.878  0.0000E+00  0.2000E+00
    -16.800  0.0000E+00  0.2000E+00
    -16.722  0.0000E+00  0.2000E+00
    -16.645  0.0000E+00  0.2000E+00
    -16.567  0.0000E+00  0.2000E+00
    -16.489  0.0000E+00  0.2000E+00
    -16.411  0.0000E+00  0.2000E+00
    -16.333  0.0000E+00  0.2000E+00
    -16.255  0.0000E+00  0.2000E+00
    -16.177  0.0000E+00  0.2000E+00
    -16.099  0.0000E+00  0.2000E+00
    -16.021  0.0000E+00  0.2000E+00
    -15.944  0.0000E+00  0.2000E+00
    -15.866  0.0000E+00  0.2000E+00
    -15.788  0.0000E+00  0.2000E+00
    -15.710  0.0000E+00  0.2000E+00
    -15.632  0.0000E+00  0.2000E+00
    -15.554  0.0000E+00  0.2000E+00
    -15.476  0.0000E+00  0.2000E+00
    -15.398  0.0000E+00  0.2000E+00
    -15.320  0.0000E+00  0.2000E+00
    -15.242  0.0000E+00  0.2000E+00
    -15.165  0.0000E+00  0.2000E+00
    -15.087  0.0000E+00  0.2000E+00
    -15.009  0.0000E+00  0.2000E+00
    -14.931  0.0000E+00  0.2000E+00
    -14.853  0.1140E-14  0.2000E+00
    -14.775  0.8437E-13  0.2000E+00
    -14.697  0.4825E-11  0.2000E+00
    -14.619  0.2043E-09  0.2000E+00
    -14.541  0.6417E-08  0.2000E+00
    -14.463  0.1495E-06  0.2000E+00
    -14.386  0.2584E-05  0.2000E+00
    -14.308  0.3316E-04  0.2000E+00
    -14.230  0.3160E-03  0.2000E+00
    -14.152  0.2237E-02  0.2002E+00
    -14.074  0.1176E-01  0.2011E+00
    -13.996  0.4600E-01  0.2047E+00
    -13.918  0.1337E+00  0.2151E+00
    -13.840  0.2891E+00  0.2376E+00
    -13.762  0.4649E+00  0.2739E+00
    -13.685  0.5562E+00  0.3172E+00
    -13.607  0.4950E+00  0.3557E+00
    -13.529  0.3277E+00  0.3813E+00
    -13.451  0.1614E+00  0.3938E+00
    -13.373  0.5911E-01  0.3984E+00
    -13.295  0.1610E-01  0.3997E+00
    -13.217  0.3259E-02  0.4000E+00
    -13.139  0.4903E-03  0.4000E+00
    -13.061  0.5480E-04  0.4000E+00
    -12.983  0.4549E-05  0.4000E+00
    -12.906  0.2803E-06  0.4000E+00
    -12.828  0.1282E-07  0.4000E+00
    -12.750  0.5385E-09  0.4000E+00
    -12.672  0.3455E-08  0.4000E+00
    -12.594  0.8485E-07  0.4000E+00
    -12.516  0.1551E-05  0.4000E+00
    -12.438  0.2104E-04  0.4000E+00
    -12.360  0.2120E-03  0.4000E+00
    -12.282  0.1586E-02  0.4001E+00
    -12.204  0.8821E-02  0.4008E+00
    -12.127  0.3645E-01  0.4037E+00
    -12.049  0.1120E+00  0.4124E+00
    -11.971  0.2560E+00  0.4323E+00
    -11.893  0.4351E+00  0.4662E+00
    -11.815  0.5501E+00  0.5091E+00
    -11.737  0.5174E+00  0.5494E+00
    -11.659  0.3621E+00  0.5776E+00
    -11.581  0.1885E+00  0.5923E+00
    -11.503  0.7296E-01  0.5980E+00
    -11.426  0.2100E-01  0.5996E+00
    -11.348  0.4494E-02  0.5999E+00
    -11.270  0.7148E-03  0.6000E+00
    -11.192  0.8446E-04  0.6000E+00
    -11.114  0.7412E-05  0.6000E+00
    -11.036  0.4829E-06  0.6000E+00
    -10.958  0.2335E-07  0.6000E+00
    -10.880  0.8377E-09  0.6000E+00
    -10.802  0.2229E-10  0.6000E+00
    -10.724  0.4395E-12  0.6000E+00
    -10.647  0.6556E-14  0.6000E+00
    -10.569  0.0000E+00  0.6000E+00
    -10.491  0.0000E+00  0.6000E+00
    -10.413  0.0000E+00  0.6000E+00
    -10.335  0.0000E+00  0.6000E+00
    -10.257  0.0000E+00  0.6000E+00
    -10.179  0.0000E+00  0.6000E+00
    -10.101  0.0000E+00  0.6000E+00
    -10.023  0.0000E+00  0.6000E+00
     -9.945  0.0000E+00  0.6000E+00
     -9.868  0.0000E+00  0.6000E+00
     -9.790  0.0000E+00  0.6000E+00
     -9.712  0.0000E+00  0.6000E+00
     -9.634  0.0000E+00  0.6000E+00
     -9.556  0.0000E+00  0.6000E+00
     -9.478  0.0000E+00  0.6000E+00
     -9.400  0.0000E+00  0.6000E+00
     -9.322  0.0000E+00  0.6000E+00
     -9.244  0.0000E+00  0.6000E+00
     -9.167  0.0000E+00  0.6000E+00
     -9.089  0.0000E+00  0.6000E+00
     -9.011  0.0000E+00  0.6000E+00
     -8.933  0.0000E+00  0.6000E+00
     -8.855  0.0000E+00  0.6000E+00
     -8.777  0.0000E+00  0.6000E+00
     -8.699  0.0000E+00  0.6000E+00
     -8.621  0.0000E+00  0.6000E+00
     -8.543  0.0000E+00  0.6000E+00
     -8.465  0.0000E+00  0.6000E+00
     -8.388  0.0000E+00  0.6000E+00
     -8.310  0.0000E+00  0.6000E+00
     -8.232  0.0000E+00  0.6000E+00
     -8.154  0.0000E+00  0.6000E+00
     -8.076  0.0000E+00  0.6000E+00
     -7.998  0.2565E-14  0.6000E+00
     -7.920  0.1884E-12  0.6000E+00
     -7.842  0.1068E-10  0.6000E+00
     -7.764  0.4487E-09  0.6000E+00
     -7.686  0.1398E-07  0.6000E+00
     -7.609  0.3232E-06  0.6000E+00
     -7.531  0.5544E-05  0.6000E+00
     -7.453  0.7059E-04  0.6000E+00
     -7.375  0.6675E-03  0.6001E+00
     -7.297  0.4688E-02  0.6004E+00
     -7.219  0.2447E-01  0.6023E+00
     -7.141  0.9495E-01  0.6097E+00
     -7.063  0.2739E+00  0.6311E+00
     -6.985  0.5876E+00  0.6768E+00
     -6.907  0.9377E+00  0.7499E+00
     -6.830  0.1113E+01  0.8366E+00
     -6.752  0.9831E+00  0.9132E+00
     -6.674  0.6459E+00  0.9635E+00
     -6.596  0.3156E+00  0.9881E+00
     -6.518  0.1147E+00  0.9970E+00
     -6.440  0.3100E-01  0.9994E+00
     -6.362  0.6228E-02  0.9999E+00
     -6.284  0.9297E-03  0.1000E+01
     -6.206  0.1031E-03  0.1000E+01
     -6.129  0.8493E-05  0.1000E+01
     -6.051  0.5193E-06  0.1000E+01
     -5.973  0.2356E-07  0.1000E+01
     -5.895  0.7931E-09  0.1000E+01
     -5.817  0.1980E-10  0.1000E+01
     -5.739  0.3666E-12  0.1000E+01
     -5.661  0.5131E-14  0.1000E+01
     -5.583  0.0000E+00  0.1000E+01
     -5.505  0.0000E+00  0.1000E+01
     -5.427  0.0000E+00  0.1000E+01
     -5.350  0.0000E+00  0.1000E+01
     -5.272  0.0000E+00  0.1000E+01
     -5.194  0.0000E+00  0.1000E+01
     -5.116  0.0000E+00  0.1000E+01
     -5.038  0.0000E+00  0.1000E+01
     -4.960  0.0000E+00  0.1000E+01
     -4.882  0.0000E+00  0.1000E+01
     -4.804  0.0000E+00  0.1000E+01
     -4.726  0.0000E+00  0.1000E+01
     -4.648  0.0000E+00  0.1000E+01
     -4.571  0.0000E+00  0.1000E+01
     -4.493  0.0000E+00  0.1000E+01
     -4.415  0.0000E+00  0.1000E+01
     -4.337  0.0000E+00  0.1000E+01
     -4.259  0.0000E+00  0.1000E+01
     -4.181  0.0000E+00  0.1000E+01
     -4.103  0.0000E+00  0.1000E+01
     -4.025  0.0000E+00  0.1000E+01
     -3.947  0.0000E+00  0.1000E+01
     -3.870  0.0000E+00  0.1000E+01
     -3.792  0.0000E+00  0.1000E+01
     -3.714  0.0000E+00  0.1000E+01
     -3.636  0.0000E+00  0.1000E+01
     -3.558  0.0000E+00  0.1000E+01
     -3.480  0.0000E+00  0.1000E+01
     -3.402  0.0000E+00  0.1000E+01
     -3.324  0.0000E+00  0.1000E+01
     -3.246  0.0000E+00  0.1000E+01
     -3.168  0.0000E+00  0.1000E+01
     -3.091  0.0000E+00  0.1000E+01
     -3.013  0.0000E+00  0.1000E+01
     -2.935  0.0000E+00  0.1000E+01
     -2.857  0.0000E+00  0.1000E+01
     -2.779  0.0000E+00  0.1000E+01
     -2.701  0.0000E+00  0.1000E+01
     -2.623  0.0000E+00  0.1000E+01
     -2.545  0.0000E+00  0.1000E+01
     -2.467  0.0000E+00  0.1000E+01
     -2.389  0.0000E+00  0.1000E+01
     -2.312  0.0000E+00  0.1000E+01
     -2.234  0.0000E+00  0.1000E+01
     -2.156  0.0000E+00  0.1000E+01
     -2.078  0.0000E+00  0.1000E+01
     -2.000  0.0000E+00  0.1000E+01
     -1.922  0.0000E+00  0.1000E+01
     -1.844  0.0000E+00  0.1000E+01
     -1.766  0.0000E+00  0.1000E+01
     -1.688  0.0000E+00  0.1000E+01
     -1.611  0.0000E+00  0.1000E+01
     -1.533  0.4276E-15  0.1000E+01
     -1.455  0.3777E-13  0.1000E+01
     -1.377  0.2279E-11  0.1000E+01
     -1.299  0.1022E-09  0.1000E+01
     -1.221  0.3398E-08  0.1000E+01
     -1.143  0.8381E-07  0.1000E+01
     -1.065  0.1534E-05  0.1000E+01
     -0.987  0.2083E-04  0.1000E+01
     -0.909  0.2101E-03  0.1000E+01
     -0.832  0.1574E-02  0.1000E+01
     -0.754  0.8766E-02  0.1001E+01
     -0.676  0.3629E-01  0.1004E+01
     -0.598  0.1118E+00  0.1012E+01
     -0.520  0.2571E+00  0.1032E+01
     -0.442  0.4453E+00  0.1067E+01
     -0.364  0.5993E+00  0.1114E+01
     -0.286  0.6835E+00  0.1167E+01
     -0.208  0.7760E+00  0.1227E+01
     -0.130  0.9558E+00  0.1302E+01
     -0.053  0.1132E+01  0.1390E+01
      0.025  0.1108E+01  0.1476E+01
      0.103  0.8348E+00  0.1541E+01
      0.181  0.4725E+00  0.1578E+01
      0.259  0.1995E+00  0.1594E+01
      0.337  0.6269E-01  0.1599E+01
      0.415  0.1465E-01  0.1600E+01
      0.493  0.2609E-02  0.1600E+01
      0.571  0.8926E-03  0.1600E+01
      0.648  0.3706E-02  0.1600E+01
      0.726  0.1778E-01  0.1602E+01
      0.804  0.6397E-01  0.1607E+01
      0.882  0.1711E+00  0.1620E+01
      0.960  0.3404E+00  0.1647E+01
      1.038  0.5038E+00  0.1686E+01
      1.116  0.5546E+00  0.1729E+01
      1.194  0.4542E+00  0.1764E+01
      1.272  0.2767E+00  0.1786E+01
      1.350  0.1254E+00  0.1796E+01
      1.427  0.4226E-01  0.1799E+01
      1.505  0.1059E-01  0.1800E+01
      1.583  0.1972E-02  0.1800E+01
      1.661  0.2730E-03  0.1800E+01
      1.739  0.2807E-04  0.1800E+01
      1.817  0.2143E-05  0.1800E+01
      1.895  0.1214E-06  0.1800E+01
      1.973  0.5106E-08  0.1800E+01
      2.051  0.1593E-09  0.1800E+01
      2.129  0.3683E-11  0.1800E+01
      2.206  0.6300E-13  0.1800E+01
      2.284  0.8551E-15  0.1800E+01
      2.362  0.0000E+00  0.1800E+01
      2.440  0.0000E+00  0.1800E+01
      2.518  0.0000E+00  0.1800E+01
      2.596  0.0000E+00  0.1800E+01
      2.674  0.0000E+00  0.1800E+01
      2.752  0.0000E+00  0.1800E+01
      2.830  0.0000E+00  0.1800E+01
      2.907  0.0000E+00  0.1800E+01
      2.985  0.0000E+00  0.1800E+01
      3.063  0.0000E+00  0.1800E+01
