    4    4   10    1
  0.1280000E+03  0.8000000E-09  0.8000000E-09  0.8000000E-09  0.5000000E-15
  1.000000000000000E-004
  CAR 
 unknown system                          
   10    1    9
 
  0.0000000E+00  0.0000000E+00  0.0000000E+00  0.1000000E+01
   1      -18.305735
   2      -13.715211
   3      -11.831116
   4       -6.862327
   5       -6.862327
   6       -0.379981
   7       -0.045602
   8       -0.045602
   9        1.063283
