       N       E                     dE             d eps       ncg     rms          rms(c)
DAV:   1     0.142158672226E+02    0.14216E+02   -0.24600E+03    26   0.459E+02
DAV:   2    -0.231570238714E+02   -0.37373E+02   -0.37361E+02    27   0.126E+02
DAV:   3    -0.263043924310E+02   -0.31474E+01   -0.31466E+01    26   0.327E+01
DAV:   4    -0.263143098380E+02   -0.99174E-02   -0.99173E-02    36   0.205E+00
DAV:   5    -0.263143144029E+02   -0.45649E-05   -0.45650E-05    28   0.454E-02    0.846E+00
DAV:   6    -0.235272065312E+02    0.27871E+01   -0.49130E+00    19   0.150E+01    0.380E+00
DAV:   7    -0.229399147073E+02    0.58729E+00   -0.24944E+00    28   0.101E+01    0.138E+00
DAV:   8    -0.228933262000E+02    0.46589E-01   -0.18051E-01    20   0.339E+00    0.449E-01
DAV:   9    -0.228845835868E+02    0.87426E-02   -0.23180E-02    19   0.109E+00    0.208E-01
DAV:  10    -0.228882693787E+02   -0.36858E-02   -0.26367E-02    20   0.951E-01    0.104E-01
DAV:  11    -0.228917054536E+02   -0.34361E-02   -0.10794E-03    19   0.276E-01    0.670E-02
DAV:  12    -0.228966056495E+02   -0.49002E-02   -0.11756E-03    19   0.218E-01    0.265E-02
DAV:  13    -0.228974366646E+02   -0.83102E-03   -0.23465E-04    19   0.103E-01    0.175E-02
DAV:  14    -0.228982325603E+02   -0.79590E-03   -0.11990E-04    18   0.663E-02    0.533E-03
DAV:  15    -0.228982801618E+02   -0.47602E-04   -0.19081E-05    19   0.281E-02
   1 F= -.22898280E+02 E0= -.22898280E+02  d E =-.228983E+02
       N       E                     dE             d eps       ncg     rms          rms(c)
DAV:   1    -0.223360036081E+02    0.56223E+00   -0.20012E+01    19   0.414E+01    0.186E+00
DAV:   2    -0.222416153782E+02    0.94388E-01   -0.27801E-01    26   0.516E+00    0.955E-01
DAV:   3    -0.222212884847E+02    0.20327E-01   -0.22337E-01    27   0.346E+00    0.314E-01
DAV:   4    -0.222178520919E+02    0.34364E-02   -0.14097E-02    18   0.897E-01    0.132E-01
DAV:   5    -0.222177821388E+02    0.69953E-04   -0.20674E-03    18   0.292E-01    0.233E-02
DAV:   6    -0.222178667033E+02   -0.84564E-04   -0.28239E-04    19   0.121E-01
   2 F= -.22217867E+02 E0= -.22217867E+02  d E =0.680413E+00
       N       E                     dE             d eps       ncg     rms          rms(c)
DAV:   1    -0.230031524183E+02   -0.78537E+00   -0.17127E+01    18   0.391E+01    0.166E+00
DAV:   2    -0.229221342537E+02    0.81018E-01   -0.22047E-01    26   0.460E+00    0.877E-01
DAV:   3    -0.229040838546E+02    0.18050E-01   -0.15422E-01    18   0.294E+00    0.222E-01
DAV:   4    -0.229042281079E+02   -0.14425E-03   -0.32081E-02    18   0.133E+00    0.194E-01
DAV:   5    -0.229030904123E+02    0.11377E-02   -0.61659E-03    18   0.648E-01    0.201E-02
DAV:   6    -0.229031535645E+02   -0.63152E-04   -0.37356E-04    19   0.183E-01
   3 F= -.22903154E+02 E0= -.22903154E+02  d E =-.487340E-02
