 vasp.5.2.12 11Nov11 complex                                                    
  
 executed on             LinuxIFC date 2012.11.03  02:06:34
 running on    1 nodes
 distr:  one band on    1 nodes,    1 groups


--------------------------------------------------------------------------------------------------------


 INCAR:
 POTCAR:   PAW_PBE H 15Jun2001                    
 POTCAR:   PAW_PBE C 08Apr2002                    
 POTCAR:   PAW_PBE H 15Jun2001                    
   VRHFIN =H: ultrasoft test                                                    
   LEXCH  = PE                                                                  
   EATOM  =    12.4884 eV,     .9179 Ry                                         
                                                                                
   TITEL  = PAW_PBE H 15Jun2001                                                 
   LULTRA =        F    use ultrasoft PP ?                                      
   IUNSCR =        0    unscreen: 0-lin 1-nonlin 2-no                           
   RPACOR =     .000    partial core radius                                     
   POMASS =    1.000; ZVAL   =    1.000    mass and valenz                      
   RCORE  =    1.100    outmost cutoff radius                                   
   RWIGS  =     .700; RWIGS  =     .370    wigner-seitz radius (au A)           
   ENMAX  =  250.000; ENMIN  =  200.000 eV                                      
   RCLOC  =     .701    cutoff for local pot                                    
   LCOR   =        T    correct aug charges                                     
   LPAW   =        T    paw PP                                                  
   EAUG   =  400.000                                                            
   RMAX   =    2.174    core radius for proj-oper                               
   RAUG   =    1.200    factor for augmentation sphere                          
   RDEP   =    1.112    radius for radial grids                                 
   QCUT   =   -5.749; QGAM   =   11.498    optimization parameters              
                                                                                
   Description                                                                  
     l     E      TYP  RCUT    TYP  RCUT                                        
     0   .000     23  1.100                                                     
     0   .500     23  1.100                                                     
     1  -.300     23  1.100                                                     
  local pseudopotential read in
  atomic valenz-charges read in
  non local Contribution for L=           0  read in
    real space projection operators read in
  non local Contribution for L=           0  read in
    real space projection operators read in
  non local Contribution for L=           1  read in
    real space projection operators read in
    PAW grid and wavefunctions read in
 
   number of l-projection  operators is LMAX  =           3
   number of lm-projection operators is LMMAX =           5
 
 POTCAR:   PAW_PBE C 08Apr2002                    
   VRHFIN =C: s2p2                                                              
   LEXCH  = PE                                                                  
   EATOM  =   147.1560 eV,   10.8157 Ry                                         
                                                                                
   TITEL  = PAW_PBE C 08Apr2002                                                 
   LULTRA =        F    use ultrasoft PP ?                                      
   IUNSCR =        0    unscreen: 0-lin 1-nonlin 2-no                           
   RPACOR =     .000    partial core radius                                     
   POMASS =   12.011; ZVAL   =    4.000    mass and valenz                      
   RCORE  =    1.500    outmost cutoff radius                                   
   RWIGS  =    1.630; RWIGS  =     .863    wigner-seitz radius (au A)           
   ENMAX  =  400.000; ENMIN  =  300.000 eV                                      
   ICORE  =        2    local potential                                         
   LCOR   =        T    correct aug charges                                     
   LPAW   =        T    paw PP                                                  
   EAUG   =  644.873                                                            
   DEXC   =     .000                                                            
   RMAX   =    2.266    core radius for proj-oper                               
   RAUG   =    1.300    factor for augmentation sphere                          
   RDEP   =    1.501    radius for radial grids                                 
   RDEPT  =    1.300    core radius for aug-charge                              
   QCUT   =   -5.516; QGAM   =   11.032    optimization parameters              
                                                                                
   Description                                                                  
     l     E      TYP  RCUT    TYP  RCUT                                        
     0   .000     23  1.200                                                     
     0   .000     23  1.200                                                     
     1   .000     23  1.500                                                     
     1  2.500     23  1.500                                                     
     2   .000      7  1.500                                                     
  local pseudopotential read in
  atomic valenz-charges read in
  non local Contribution for L=           0  read in
    real space projection operators read in
  non local Contribution for L=           0  read in
    real space projection operators read in
  non local Contribution for L=           1  read in
    real space projection operators read in
  non local Contribution for L=           1  read in
    real space projection operators read in
    PAW grid and wavefunctions read in
 
   number of l-projection  operators is LMAX  =           4
   number of lm-projection operators is LMMAX =           8
 
 PAW_PBE H 15Jun2001                    :
 energy of atom  1       EATOM=  -12.4884
 kinetic energy error for atom=    0.0203 (will be added to EATOM!!)
 PAW_PBE C 08Apr2002                    :
 energy of atom  2       EATOM= -147.1560
 kinetic energy error for atom=    0.0854 (will be added to EATOM!!)
 
 
 POSCAR:  H  C                                   
  positions in cartesian coordinates
  No initial velocities read in
 exchange correlation table for  LEXCH =        8
   RHO(1)=    0.500       N(1)  =     2000
   RHO(2)=  100.500       N(2)  =     4000
 


--------------------------------------------------------------------------------------------------------


 ion  position               nearest neighbor table
   1  0.000  0.000  0.791-   4 1.07
   2  0.000  0.000  0.209-   3 1.07
   3  0.000  0.000  0.076-   2 1.07   4 1.22
   4  0.000  0.000  0.924-   1 1.07   3 1.22
 
  LATTYP: Found a simple cubic cell.
 ALAT       =     8.0000000000
  
  Lattice vectors:
  
 A1 = (   8.0000000000,   0.0000000000,   0.0000000000)
 A2 = (   0.0000000000,   8.0000000000,   0.0000000000)
 A3 = (   0.0000000000,   0.0000000000,   8.0000000000)
 Subroutine PRICEL returns:
 Original cell was already a primitive cell.
 

Analysis of symmetry for initial positions (statically):

 Routine SETGRP: Setting up the symmetry group for a 
 simple cubic supercell.


 Subroutine GETGRP returns: Found 16 space group operations
 (whereof 16 operations were pure point group operations)
 out of a pool of 48 trial point group operations.


The static configuration has the point symmetry D_4h.

Analysis of symmetry for dynamics (positions and initial velocities):

 Subroutine DYNSYM returns: Found 16 space group operations
 (whereof 16 operations were pure point group operations)
 out of a pool of 16 trial space group operations
 (whereof 16 operations were pure point group operations)
 and found also     1 'primitive' translations


The dynamic configuration has the point symmetry D_4h.
 
 
 KPOINTS: KPOINTS created by Atomic Simulation Env

Automatic generation of k-mesh.
 
 Subroutine IBZKPT returns following result:
 ===========================================
 
 Found      1 irreducible k-points:
 
 Following reciprocal coordinates:
            Coordinates               Weight
  0.000000  0.000000  0.000000      1.000000
 
 Following cartesian coordinates:
            Coordinates               Weight
  0.000000  0.000000  0.000000      1.000000
 


--------------------------------------------------------------------------------------------------------




 Dimension of arrays:
   k-points           NKPTS =      1   k-points in BZ     NKDIM =      1   number of bands    NBANDS=      9
   number of dos      NEDOS =    301   number of ions     NIONS =      4
   non local maximal  LDIM  =      4   non local SUM 2l+1 LMDIM =      8
   total plane-waves  NPLWV =  64000
   max r-space proj   IRMAX =      1   max aug-charges    IRDMAX=   1674
   dimension x,y,z NGX =    40 NGY =   40 NGZ =   40
   dimension x,y,z NGXF=    80 NGYF=   80 NGZF=   80
   support grid    NGXF=    80 NGYF=   80 NGZF=   80
   ions per type =               2   2
 NGX,Y,Z   is equivalent  to a cutoff of   8.31,  8.31,  8.31 a.u.
 NGXF,Y,Z  is equivalent  to a cutoff of  16.62, 16.62, 16.62 a.u.


 I would recommend the setting:
   dimension x,y,z NGX =    37 NGY =   37 NGZ =   37
 SYSTEM =  unknown system                          
 POSCAR =   H  C                                   

 Startparameter for this run:
   NWRITE =      2    write-flag & timer
   PREC   = normal    normal or accurate (medium, high low for compatibility)
   ISTART =      0    job   : 0-new  1-cont  2-samecut
   ICHARG =      2    charge: 1-file 2-atom 10-const
   ISPIN  =      1    spin polarized calculation?
   LNONCOLLINEAR =      F non collinear calculations
   LSORBIT =      F    spin-orbit coupling
   INIWAV =      1    electr: 0-lowe 1-rand  2-diag
   LASPH  =      F    aspherical Exc in radial PAW
   METAGGA=      F    non-selfconsistent MetaGGA calc.

 Electronic Relaxation 1
   ENCUT  =  350.0 eV  25.72 Ry    5.07 a.u.  12.20 12.20 12.20*2*pi/ulx,y,z
   ENINI  =  350.0     initial cutoff
   ENAUG  =  644.9 eV  augmentation charge cutoff
   NELM   =     60;   NELMIN=  2; NELMDL= -5     # of ELM steps 
   EDIFF  = 0.1E-03   stopping-criterion for ELM
   LREAL  =      F    real-space projection
   NLSPLINE    = F    spline interpolate recip. space projectors
   LCOMPAT=      F    compatible to vasp.4.4
   GGA_COMPAT  = T    GGA compatible to vasp.4.4-vasp.4.6
   LMAXPAW     = -100 max onsite density
   LMAXMIX     =    2 max onsite mixed and CHGCAR
   VOSKOWN=      0    Vosko Wilk Nusair interpolation
   ROPT   =    0.00000   0.00000
 Ionic relaxation
   EDIFFG = 0.1E-02   stopping-criterion for IOM
   NSW    =     10    number of steps for IOM
   NBLOCK =      1;   KBLOCK =     10    inner block; outer block 
   IBRION =      2    ionic relax: 0-MD 1-quasi-New 2-CG
   NFREE  =      1    steps in history (QN), initial steepest desc. (CG)
   ISIF   =      2    stress and relaxation
   IWAVPR =     11    prediction:  0-non 1-charg 2-wave 3-comb
   ISYM   =      2    0-nonsym 1-usesym 2-fastsym
   LCORR  =      T    Harris-Foulkes like correction to forces

   POTIM  = 0.5000    time-step for ionic-motion
   TEIN   =    0.0    initial temperature
   TEBEG  =    0.0;   TEEND  =   0.0 temperature during run
   SMASS  =  -3.00    Nose mass-parameter (am)
   estimated Nose-frequenzy (Omega)   =  0.10E-29 period in steps =****** mass=  -0.146E-26a.u.
   SCALEE = 1.0000    scale energy and forces
   NPACO  =    256;   APACO  = 16.0  distance and # of slots for P.C.
   PSTRESS=    0.0 pullay stress

  Mass of Ions in am
   POMASS =   1.00 12.01
  Ionic Valenz
   ZVAL   =   1.00  4.00
  Atomic Wigner-Seitz radii
   RWIGS  =  -1.00 -1.00
  virtual crystal weights 
   VCA    =   1.00  1.00
   NELECT =      10.0000    total number of electrons
   NUPDOWN=      -1.0000    fix difference up-down

 DOS related values:
   EMIN   =  10.00;   EMAX   =-10.00  energy-range for DOS
   EFERMI =   0.00
   ISMEAR =     0;   SIGMA  =   0.20  broadening in eV -4-tet -1-fermi 0-gaus

 Electronic relaxation 2 (details)
   IALGO  =     38    algorithm
   LDIAG  =      T    sub-space diagonalisation (order eigenvalues)
   LSUBROT=      T    optimize rotation matrix (better conditioning)
   TURBO    =      0    0=normal 1=particle mesh
   IRESTART =      0    0=no restart 2=restart with 2 vectors
   NREBOOT  =      0    no. of reboots
   NMIN     =      0    reboot dimension
   EREF     =   0.00    reference energy to select bands
   IMIX   =      4    mixing-type and parameters
     AMIX     =   0.40;   BMIX     =  1.00
     AMIX_MAG =   1.60;   BMIX_MAG =  1.00
     AMIN     =   0.10
     WC   =   100.;   INIMIX=   1;  MIXPRE=   1

 Intra band minimization:
   WEIMIN = 0.0010     energy-eigenvalue tresh-hold
   EBREAK =  0.28E-05  absolut break condition
   DEPER  =   0.30     relativ break condition  

   TIME   =   0.40     timestep for ELM

  volume/ion in A,a.u.               =     128.00       863.79
  Fermi-wavevector in a.u.,A,eV,Ry     =   0.440878  0.833138  2.644608  0.194373
  Thomas-Fermi vector in A             =   1.415836
 
 Write flags
   LWAVE  =      T    write WAVECAR
   LCHARG =      T    write CHGCAR
   LVTOT  =      F    write LOCPOT, total local potential
   LVHAR  =      F    write LOCPOT, Hartree potential only
   LELF   =      F    write electronic localiz. function (ELF)
   LORBIT =      0    0 simple, 1 ext, 2 COOP (PROOUT)


 Dipole corrections
   LMONO  =      F    monopole corrections only (constant potential shift)
   LDIPOL =      F    correct potential (dipole corrections)
   IDIPOL =      0    1-x, 2-y, 3-z, 4-all directions 
   EPSILON=  1.0000000 bulk dielectric constant

 Exchange correlation treatment:
   GGA     =    --    GGA type
   LEXCH   =     8    internal setting for exchange type
   VOSKOWN=      0    Vosko Wilk Nusair interpolation
   LHFCALC =     F    Hartree Fock is set to
   LHFONE  =     F    Hartree Fock one center treatment
   AEXX    =    0.0000 exact exchange contribution

 Linear response parameters
   LEPSILON=     F    determine dielectric tensor
   LRPA    =     F    only Hartree local field effects (RPA)
   LNABLA  =     F    use nabla operator in PAW spheres
   LVEL    =     F    velocity operator in full k-point grid
   LINTERFAST=   F  fast interpolation
   KINTER  =     0    interpolate to denser k-point grid
   CSHIFT  =0.1000    complex shift for real part using Kramers Kronig
   OMEGAMAX=  -1.0    maximum frequency
   RTIME   =    0.100 relaxation time in fs

 Orbital magnetization related:
   ORBITALMAG=     F  switch on orbital magnetization
   LCHIMAG   =     F  perturbation theory with respect to B field
   DQ        =  0.001000  dq finite difference perturbation B field



--------------------------------------------------------------------------------------------------------


 conjugate gradient relaxation of ions
 charge density and potential will be updated during run
 non-spin polarized calculation
 Variant of blocked Davidson
 Davidson routine will perform the subspace rotation
 perform sub-space diagonalisation
    after iterative eigenvector-optimisation
 modified Broyden-mixing scheme, WC =      100.0
 initial mixing is a Kerker type mixing with AMIX =  0.4000 and BMIX =      1.0000
 Hartree-type preconditioning will be used
 using additional bands            4
 reciprocal scheme for non local part
 calculate Harris-corrections to forces 
   (improved forces if not selfconsistent)
 use gradient corrections 
 use of overlap-Matrix (Vanderbilt PP)
 Gauss-broadening in eV      SIGMA  =   0.20


--------------------------------------------------------------------------------------------------------


  energy-cutoff  :      350.00
  volume of cell :      512.00
      direct lattice vectors                 reciprocal lattice vectors
     8.000000000  0.000000000  0.000000000     0.125000000  0.000000000  0.000000000
     0.000000000  8.000000000  0.000000000     0.000000000  0.125000000  0.000000000
     0.000000000  0.000000000  8.000000000     0.000000000  0.000000000  0.125000000

  length of vectors
     8.000000000  8.000000000  8.000000000     0.125000000  0.125000000  0.125000000


 
 k-points in units of 2pi/SCALE and weight: KPOINTS created by Atomic Simulation Env
   0.00000000  0.00000000  0.00000000       1.000
 
 k-points in reciprocal lattice and weights: KPOINTS created by Atomic Simulation Env
   0.00000000  0.00000000  0.00000000       1.000
 
 position of ions in fractional coordinates (direct lattice) 
   0.00000000  0.00000000  0.79075125
   0.00000000  0.00000000  0.20924875
   0.00000000  0.00000000  0.07601000
   0.00000000  0.00000000  0.92399000
 
 position of ions in cartesian coordinates  (Angst):
   0.00000000  0.00000000  6.32601000
   0.00000000  0.00000000  1.67399000
   0.00000000  0.00000000  0.60808000
   0.00000000  0.00000000  7.39192000
 


--------------------------------------------------------------------------------------------------------


 k-point  1 :  0.00000.00000.0000  plane waves:    7521

 maximum and minimum number of plane-waves per node :      7521     7521

 maximum number of plane-waves:      7521
 maximum index in each direction: 
   IXMAX=   12   IYMAX=   12   IZMAX=   12
   IXMIN=  -12   IYMIN=  -12   IZMIN=  -12

 WARNING: aliasing errors must be expected set NGX to  50 to avoid them
 WARNING: aliasing errors must be expected set NGY to  50 to avoid them
 WARNING: aliasing errors must be expected set NGZ to  50 to avoid them
 aliasing errors are usually negligible using standard VASP settings
 and one can safely disregard these warnings

 serial   3D FFT for wavefunctions
 parallel 3D FFT for charge:
    minimum data exchange during FFTs selected (reduces bandwidth)


 total amount of memory used by VASP on root node    82175. kBytes
========================================================================

   base      :      30000. kBytes
   nonl-proj :       1444. kBytes
   fftplans  :      17864. kBytes
   grid      :      31769. kBytes
   one-center:         12. kBytes
   wavefun   :       1086. kBytes
 
 Broyden mixing: mesh for mixing (old mesh)
   NGX = 25   NGY = 25   NGZ = 25
  (NGX  = 80   NGY  = 80   NGZ  = 80)
  gives a total of  15625 points

 initial charge density was supplied:
 charge density of overlapping atoms calculated
 number of electron      10.0000000 magnetization 
 keeping initial charge density in first step


--------------------------------------------------------------------------------------------------------


 Maximum index for augmentation-charges         1390 (set IRDMAX)


--------------------------------------------------------------------------------------------------------


 First call to EWALD:  gamma=   0.222
 Maximum number of real-space cells 3x 3x 3
 Maximum number of reciprocal cells 3x 3x 3

    FEWALD:  cpu time    0.00: real time    0.00


----------------------------------------- Iteration    1(   1)  ---------------------------------------


    POTLOK:  cpu time    0.80: real time    0.80
    SETDIJ:  cpu time    0.01: real time    0.01
     EDDAV:  cpu time    0.40: real time    0.40
       DOS:  cpu time    0.00: real time    0.00
    --------------------------------------------
      LOOP:  cpu time    1.21: real time    1.23

 eigenvalue-minimisations  :    26
 total energy-change (2. order) : 0.1421587E+02  (-0.2460007E+03)
 number of electron      10.0000000 magnetization 
 augmentation part       10.0000000 magnetization 

 Free energy of the ion-electron system (eV)
  ---------------------------------------------------
  alpha Z        PSCENC =         0.89086884
  Ewald energy   TEWEN  =       102.54077057
  -1/2 Hartree   DENC   =      -317.70358761
  -exchange  EXHF       =         0.00000000
  -V(xc)+E(xc)   XCENC  =        30.23698627
  PAW double counting   =        77.22553761      -79.54451240
  entropy T*S    EENTRO =        -0.00009538
  eigenvalues    EBANDS =      -118.50760256
  atomic energy  EATOM  =       319.07750188
  ---------------------------------------------------
  free energy    TOTEN  =        14.21586722 eV

  energy without entropy =       14.21596260  energy(sigma->0) =       14.21591491


--------------------------------------------------------------------------------------------------------




----------------------------------------- Iteration    1(   2)  ---------------------------------------


     EDDAV:  cpu time    0.45: real time    0.45
       DOS:  cpu time    0.00: real time    0.00
    --------------------------------------------
      LOOP:  cpu time    0.45: real time    0.50

 eigenvalue-minimisations  :    27
 total energy-change (2. order) :-0.3737289E+02  (-0.3736058E+02)
 number of electron      10.0000000 magnetization 
 augmentation part       10.0000000 magnetization 

 Free energy of the ion-electron system (eV)
  ---------------------------------------------------
  alpha Z        PSCENC =         0.89086884
  Ewald energy   TEWEN  =       102.54077057
  -1/2 Hartree   DENC   =      -317.70358761
  -exchange  EXHF       =         0.00000000
  -V(xc)+E(xc)   XCENC  =        30.23698627
  PAW double counting   =        77.22553761      -79.54451240
  entropy T*S    EENTRO =         0.00000000
  eigenvalues    EBANDS =      -155.88058904
  atomic energy  EATOM  =       319.07750188
  ---------------------------------------------------
  free energy    TOTEN  =       -23.15702387 eV

  energy without entropy =      -23.15702387  energy(sigma->0) =      -23.15702387


--------------------------------------------------------------------------------------------------------




----------------------------------------- Iteration    1(   3)  ---------------------------------------


     EDDAV:  cpu time    0.44: real time    0.44
       DOS:  cpu time    0.00: real time    0.00
    --------------------------------------------
      LOOP:  cpu time    0.44: real time    0.51

 eigenvalue-minimisations  :    26
 total energy-change (2. order) :-0.3147369E+01  (-0.3146618E+01)
 number of electron      10.0000000 magnetization 
 augmentation part       10.0000000 magnetization 

 Free energy of the ion-electron system (eV)
  ---------------------------------------------------
  alpha Z        PSCENC =         0.89086884
  Ewald energy   TEWEN  =       102.54077057
  -1/2 Hartree   DENC   =      -317.70358761
  -exchange  EXHF       =         0.00000000
  -V(xc)+E(xc)   XCENC  =        30.23698627
  PAW double counting   =        77.22553761      -79.54451240
  entropy T*S    EENTRO =         0.00000000
  eigenvalues    EBANDS =      -159.02795759
  atomic energy  EATOM  =       319.07750188
  ---------------------------------------------------
  free energy    TOTEN  =       -26.30439243 eV

  energy without entropy =      -26.30439243  energy(sigma->0) =      -26.30439243


--------------------------------------------------------------------------------------------------------




----------------------------------------- Iteration    1(   4)  ---------------------------------------


     EDDAV:  cpu time    0.55: real time    0.55
       DOS:  cpu time    0.00: real time    0.00
    --------------------------------------------
      LOOP:  cpu time    0.55: real time    0.62

 eigenvalue-minimisations  :    36
 total energy-change (2. order) :-0.9917407E-02  (-0.9917327E-02)
 number of electron      10.0000000 magnetization 
 augmentation part       10.0000000 magnetization 

 Free energy of the ion-electron system (eV)
  ---------------------------------------------------
  alpha Z        PSCENC =         0.89086884
  Ewald energy   TEWEN  =       102.54077057
  -1/2 Hartree   DENC   =      -317.70358761
  -exchange  EXHF       =         0.00000000
  -V(xc)+E(xc)   XCENC  =        30.23698627
  PAW double counting   =        77.22553761      -79.54451240
  entropy T*S    EENTRO =         0.00000000
  eigenvalues    EBANDS =      -159.03787500
  atomic energy  EATOM  =       319.07750188
  ---------------------------------------------------
  free energy    TOTEN  =       -26.31430984 eV

  energy without entropy =      -26.31430984  energy(sigma->0) =      -26.31430984


--------------------------------------------------------------------------------------------------------




----------------------------------------- Iteration    1(   5)  ---------------------------------------


     EDDAV:  cpu time    0.44: real time    0.44
       DOS:  cpu time    0.00: real time    0.00
    CHARGE:  cpu time    0.11: real time    0.11
    MIXING:  cpu time    0.03: real time    0.03
    --------------------------------------------
      LOOP:  cpu time    0.58: real time    0.63

 eigenvalue-minimisations  :    28
 total energy-change (2. order) :-0.4564899E-05  (-0.4564987E-05)
 number of electron      10.0000012 magnetization 
 augmentation part        0.2503149 magnetization 

 Broyden mixing:
  rms(total) = 0.84628E+00    rms(broyden)= 0.84598E+00
  rms(prec ) = 0.13375E+01
  weight for this iteration     100.00

 Free energy of the ion-electron system (eV)
  ---------------------------------------------------
  alpha Z        PSCENC =         0.89086884
  Ewald energy   TEWEN  =       102.54077057
  -1/2 Hartree   DENC   =      -317.70358761
  -exchange  EXHF       =         0.00000000
  -V(xc)+E(xc)   XCENC  =        30.23698627
  PAW double counting   =        77.22553761      -79.54451240
  entropy T*S    EENTRO =         0.00000000
  eigenvalues    EBANDS =      -159.03787957
  atomic energy  EATOM  =       319.07750188
  ---------------------------------------------------
  free energy    TOTEN  =       -26.31431440 eV

  energy without entropy =      -26.31431440  energy(sigma->0) =      -26.31431440


--------------------------------------------------------------------------------------------------------




----------------------------------------- Iteration    1(   6)  ---------------------------------------


    POTLOK:  cpu time    0.87: real time    0.87
    SETDIJ:  cpu time    0.01: real time    0.01
     EDDAV:  cpu time    0.33: real time    0.33
       DOS:  cpu time    0.00: real time    0.00
    CHARGE:  cpu time    0.11: real time    0.11
    MIXING:  cpu time    0.03: real time    0.03
    --------------------------------------------
      LOOP:  cpu time    1.35: real time    1.36

 eigenvalue-minimisations  :    19
 total energy-change (2. order) : 0.2787108E+01  (-0.4913027E+00)
 number of electron      10.0000014 magnetization 
 augmentation part        0.2274141 magnetization 

 Broyden mixing:
  rms(total) = 0.38026E+00    rms(broyden)= 0.38019E+00
  rms(prec ) = 0.59297E+00
  weight for this iteration     100.00

 eigenvalues of (default mixing * dielectric matrix)
  average eigenvalue GAMMA=   1.6210
  1.6210

 Free energy of the ion-electron system (eV)
  ---------------------------------------------------
  alpha Z        PSCENC =         0.89086884
  Ewald energy   TEWEN  =       102.54077057
  -1/2 Hartree   DENC   =      -338.81542845
  -exchange  EXHF       =         0.00000000
  -V(xc)+E(xc)   XCENC  =        31.43860079
  PAW double counting   =       114.28173688     -116.84842542
  entropy T*S    EENTRO =         0.00000000
  eigenvalues    EBANDS =      -136.09283163
  atomic energy  EATOM  =       319.07750188
  ---------------------------------------------------
  free energy    TOTEN  =       -23.52720653 eV

  energy without entropy =      -23.52720653  energy(sigma->0) =      -23.52720653


--------------------------------------------------------------------------------------------------------




----------------------------------------- Iteration    1(   7)  ---------------------------------------


    POTLOK:  cpu time    0.86: real time    0.86
    SETDIJ:  cpu time    0.01: real time    0.01
     EDDAV:  cpu time    0.44: real time    0.44
       DOS:  cpu time    0.00: real time    0.00
    CHARGE:  cpu time    0.11: real time    0.11
    MIXING:  cpu time    0.03: real time    0.03
    --------------------------------------------
      LOOP:  cpu time    1.46: real time    1.48

 eigenvalue-minimisations  :    28
 total energy-change (2. order) : 0.5872918E+00  (-0.2494436E+00)
 number of electron      10.0000015 magnetization 
 augmentation part        0.2105387 magnetization 

 Broyden mixing:
  rms(total) = 0.13849E+00    rms(broyden)= 0.13832E+00
  rms(prec ) = 0.19864E+00
  weight for this iteration     100.00

 eigenvalues of (default mixing * dielectric matrix)
  average eigenvalue GAMMA=   2.1275
  1.7461  2.5088

 Free energy of the ion-electron system (eV)
  ---------------------------------------------------
  alpha Z        PSCENC =         0.89086884
  Ewald energy   TEWEN  =       102.54077057
  -1/2 Hartree   DENC   =      -355.18177666
  -exchange  EXHF       =         0.00000000
  -V(xc)+E(xc)   XCENC  =        32.44324961
  PAW double counting   =       145.26673162     -147.93948533
  entropy T*S    EENTRO =         0.00000000
  eigenvalues    EBANDS =      -120.03777525
  atomic energy  EATOM  =       319.07750188
  ---------------------------------------------------
  free energy    TOTEN  =       -22.93991471 eV

  energy without entropy =      -22.93991471  energy(sigma->0) =      -22.93991471


--------------------------------------------------------------------------------------------------------




----------------------------------------- Iteration    1(   8)  ---------------------------------------


    POTLOK:  cpu time    0.85: real time    0.85
    SETDIJ:  cpu time    0.01: real time    0.01
     EDDAV:  cpu time    0.34: real time    0.34
       DOS:  cpu time    0.00: real time    0.00
    CHARGE:  cpu time    0.11: real time    0.11
    MIXING:  cpu time    0.03: real time    0.03
    --------------------------------------------
      LOOP:  cpu time    1.34: real time    1.40

 eigenvalue-minimisations  :    20
 total energy-change (2. order) : 0.4658851E-01  (-0.1805085E-01)
 number of electron      10.0000014 magnetization 
 augmentation part        0.2132056 magnetization 

 Broyden mixing:
  rms(total) = 0.44881E-01    rms(broyden)= 0.44874E-01
  rms(prec ) = 0.85125E-01
  weight for this iteration     100.00

 eigenvalues of (default mixing * dielectric matrix)
  average eigenvalue GAMMA=   1.6147
  2.3797  0.8928  1.5717

 Free energy of the ion-electron system (eV)
  ---------------------------------------------------
  alpha Z        PSCENC =         0.89086884
  Ewald energy   TEWEN  =       102.54077057
  -1/2 Hartree   DENC   =      -357.04227029
  -exchange  EXHF       =         0.00000000
  -V(xc)+E(xc)   XCENC  =        32.62714024
  PAW double counting   =       147.98992664     -150.56409582
  entropy T*S    EENTRO =         0.00000000
  eigenvalues    EBANDS =      -118.41316827
  atomic energy  EATOM  =       319.07750188
  ---------------------------------------------------
  free energy    TOTEN  =       -22.89332620 eV

  energy without entropy =      -22.89332620  energy(sigma->0) =      -22.89332620


--------------------------------------------------------------------------------------------------------




----------------------------------------- Iteration    1(   9)  ---------------------------------------


    POTLOK:  cpu time    0.85: real time    0.85
    SETDIJ:  cpu time    0.01: real time    0.01
     EDDAV:  cpu time    0.33: real time    0.33
       DOS:  cpu time    0.00: real time    0.00
    CHARGE:  cpu time    0.11: real time    0.11
    MIXING:  cpu time    0.03: real time    0.03
    --------------------------------------------
      LOOP:  cpu time    1.33: real time    1.46

 eigenvalue-minimisations  :    19
 total energy-change (2. order) : 0.8742613E-02  (-0.2318014E-02)
 number of electron      10.0000014 magnetization 
 augmentation part        0.2118266 magnetization 

 Broyden mixing:
  rms(total) = 0.20799E-01    rms(broyden)= 0.20795E-01
  rms(prec ) = 0.50154E-01
  weight for this iteration     100.00

 eigenvalues of (default mixing * dielectric matrix)
  average eigenvalue GAMMA=   1.6093
  2.4257  1.7098  1.1509  1.1509

 Free energy of the ion-electron system (eV)
  ---------------------------------------------------
  alpha Z        PSCENC =         0.89086884
  Ewald energy   TEWEN  =       102.54077057
  -1/2 Hartree   DENC   =      -358.28830129
  -exchange  EXHF       =         0.00000000
  -V(xc)+E(xc)   XCENC  =        32.68601730
  PAW double counting   =       149.59443913     -152.18683647
  entropy T*S    EENTRO =         0.00000000
  eigenvalues    EBANDS =      -117.19904356
  atomic energy  EATOM  =       319.07750188
  ---------------------------------------------------
  free energy    TOTEN  =       -22.88458359 eV

  energy without entropy =      -22.88458359  energy(sigma->0) =      -22.88458359


--------------------------------------------------------------------------------------------------------




----------------------------------------- Iteration    1(  10)  ---------------------------------------


    POTLOK:  cpu time    0.84: real time    0.84
    SETDIJ:  cpu time    0.01: real time    0.01
     EDDAV:  cpu time    0.34: real time    0.34
       DOS:  cpu time    0.00: real time    0.00
    CHARGE:  cpu time    0.11: real time    0.11
    MIXING:  cpu time    0.03: real time    0.03
    --------------------------------------------
      LOOP:  cpu time    1.33: real time    1.36

 eigenvalue-minimisations  :    20
 total energy-change (2. order) :-0.3685792E-02  (-0.2636708E-02)
 number of electron      10.0000015 magnetization 
 augmentation part        0.2105294 magnetization 

 Broyden mixing:
  rms(total) = 0.10411E-01    rms(broyden)= 0.10391E-01
  rms(prec ) = 0.21813E-01
  weight for this iteration     100.00

 eigenvalues of (default mixing * dielectric matrix)
  average eigenvalue GAMMA=   1.9129
  3.6369  2.4376  1.4581  1.0159  1.0159

 Free energy of the ion-electron system (eV)
  ---------------------------------------------------
  alpha Z        PSCENC =         0.89086884
  Ewald energy   TEWEN  =       102.54077057
  -1/2 Hartree   DENC   =      -360.21162923
  -exchange  EXHF       =         0.00000000
  -V(xc)+E(xc)   XCENC  =        32.76026424
  PAW double counting   =       149.54241470     -152.14747816
  entropy T*S    EENTRO =         0.00000000
  eigenvalues    EBANDS =      -115.34098223
  atomic energy  EATOM  =       319.07750188
  ---------------------------------------------------
  free energy    TOTEN  =       -22.88826938 eV

  energy without entropy =      -22.88826938  energy(sigma->0) =      -22.88826938


--------------------------------------------------------------------------------------------------------




----------------------------------------- Iteration    1(  11)  ---------------------------------------


    POTLOK:  cpu time    0.83: real time    0.83
    SETDIJ:  cpu time    0.01: real time    0.01
     EDDAV:  cpu time    0.32: real time    0.32
       DOS:  cpu time    0.00: real time    0.00
    CHARGE:  cpu time    0.11: real time    0.11
    MIXING:  cpu time    0.03: real time    0.03
    --------------------------------------------
      LOOP:  cpu time    1.30: real time    1.36

 eigenvalue-minimisations  :    19
 total energy-change (2. order) :-0.3436075E-02  (-0.1079373E-03)
 number of electron      10.0000015 magnetization 
 augmentation part        0.2106560 magnetization 

 Broyden mixing:
  rms(total) = 0.67032E-02    rms(broyden)= 0.67016E-02
  rms(prec ) = 0.12396E-01
  weight for this iteration     100.00

 eigenvalues of (default mixing * dielectric matrix)
  average eigenvalue GAMMA=   2.0952
  3.9140  2.5881  2.5881  1.0469  1.2170  1.2170

 Free energy of the ion-electron system (eV)
  ---------------------------------------------------
  alpha Z        PSCENC =         0.89086884
  Ewald energy   TEWEN  =       102.54077057
  -1/2 Hartree   DENC   =      -360.50169720
  -exchange  EXHF       =         0.00000000
  -V(xc)+E(xc)   XCENC  =        32.76344878
  PAW double counting   =       148.81175860     -151.41410982
  entropy T*S    EENTRO =         0.00000000
  eigenvalues    EBANDS =      -115.06024713
  atomic energy  EATOM  =       319.07750188
  ---------------------------------------------------
  free energy    TOTEN  =       -22.89170545 eV

  energy without entropy =      -22.89170545  energy(sigma->0) =      -22.89170545


--------------------------------------------------------------------------------------------------------




----------------------------------------- Iteration    1(  12)  ---------------------------------------


    POTLOK:  cpu time    0.82: real time    0.82
    SETDIJ:  cpu time    0.01: real time    0.01
     EDDAV:  cpu time    0.32: real time    0.33
       DOS:  cpu time    0.00: real time    0.00
    CHARGE:  cpu time    0.11: real time    0.11
    MIXING:  cpu time    0.03: real time    0.03
    --------------------------------------------
      LOOP:  cpu time    1.30: real time    1.40

 eigenvalue-minimisations  :    19
 total energy-change (2. order) :-0.4900196E-02  (-0.1175567E-03)
 number of electron      10.0000015 magnetization 
 augmentation part        0.2107111 magnetization 

 Broyden mixing:
  rms(total) = 0.26518E-02    rms(broyden)= 0.26510E-02
  rms(prec ) = 0.44051E-02
  weight for this iteration     100.00

 eigenvalues of (default mixing * dielectric matrix)
  average eigenvalue GAMMA=   2.0777
  4.8064  2.9534  2.3645  1.3480  1.0821  1.0821  0.9077

 Free energy of the ion-electron system (eV)
  ---------------------------------------------------
  alpha Z        PSCENC =         0.89086884
  Ewald energy   TEWEN  =       102.54077057
  -1/2 Hartree   DENC   =      -360.47686368
  -exchange  EXHF       =         0.00000000
  -V(xc)+E(xc)   XCENC  =        32.75743891
  PAW double counting   =       149.10247940     -151.70256743
  entropy T*S    EENTRO =         0.00000000
  eigenvalues    EBANDS =      -115.08623416
  atomic energy  EATOM  =       319.07750188
  ---------------------------------------------------
  free energy    TOTEN  =       -22.89660565 eV

  energy without entropy =      -22.89660565  energy(sigma->0) =      -22.89660565


--------------------------------------------------------------------------------------------------------




----------------------------------------- Iteration    1(  13)  ---------------------------------------


    POTLOK:  cpu time    0.82: real time    0.83
    SETDIJ:  cpu time    0.01: real time    0.01
     EDDAV:  cpu time    0.32: real time    0.32
       DOS:  cpu time    0.00: real time    0.00
    CHARGE:  cpu time    0.11: real time    0.11
    MIXING:  cpu time    0.03: real time    0.03
    --------------------------------------------
      LOOP:  cpu time    1.30: real time    1.36

 eigenvalue-minimisations  :    19
 total energy-change (2. order) :-0.8310151E-03  (-0.2346544E-04)
 number of electron      10.0000014 magnetization 
 augmentation part        0.2108222 magnetization 

 Broyden mixing:
  rms(total) = 0.17519E-02    rms(broyden)= 0.17510E-02
  rms(prec ) = 0.28394E-02
  weight for this iteration     100.00

 eigenvalues of (default mixing * dielectric matrix)
  average eigenvalue GAMMA=   2.3257
  5.7673  3.4799  2.7083  2.1252  1.2243  1.2243  1.0974  0.9790

 Free energy of the ion-electron system (eV)
  ---------------------------------------------------
  alpha Z        PSCENC =         0.89086884
  Ewald energy   TEWEN  =       102.54077057
  -1/2 Hartree   DENC   =      -360.30364793
  -exchange  EXHF       =         0.00000000
  -V(xc)+E(xc)   XCENC  =        32.74582161
  PAW double counting   =       148.83287055     -151.43208812
  entropy T*S    EENTRO =         0.00000000
  eigenvalues    EBANDS =      -115.24953408
  atomic energy  EATOM  =       319.07750188
  ---------------------------------------------------
  free energy    TOTEN  =       -22.89743666 eV

  energy without entropy =      -22.89743666  energy(sigma->0) =      -22.89743666


--------------------------------------------------------------------------------------------------------




----------------------------------------- Iteration    1(  14)  ---------------------------------------


    POTLOK:  cpu time    0.82: real time    0.82
    SETDIJ:  cpu time    0.01: real time    0.03
     EDDAV:  cpu time    0.31: real time    0.31
       DOS:  cpu time    0.00: real time    0.00
    CHARGE:  cpu time    0.11: real time    0.11
    MIXING:  cpu time    0.03: real time    0.03
    --------------------------------------------
      LOOP:  cpu time    1.29: real time    1.37

 eigenvalue-minimisations  :    18
 total energy-change (2. order) :-0.7958957E-03  (-0.1199029E-04)
 number of electron      10.0000014 magnetization 
 augmentation part        0.2107936 magnetization 

 Broyden mixing:
  rms(total) = 0.53305E-03    rms(broyden)= 0.53298E-03
  rms(prec ) = 0.78087E-03
  weight for this iteration     100.00

 eigenvalues of (default mixing * dielectric matrix)
  average eigenvalue GAMMA=   2.2699
  5.8883  3.8532  2.5364  2.5364  1.3571  1.1394  1.1394  0.9894  0.9894

 Free energy of the ion-electron system (eV)
  ---------------------------------------------------
  alpha Z        PSCENC =         0.89086884
  Ewald energy   TEWEN  =       102.54077057
  -1/2 Hartree   DENC   =      -360.33751329
  -exchange  EXHF       =         0.00000000
  -V(xc)+E(xc)   XCENC  =        32.74741443
  PAW double counting   =       148.89266474     -151.49208538
  entropy T*S    EENTRO =         0.00000000
  eigenvalues    EBANDS =      -115.21785436
  atomic energy  EATOM  =       319.07750188
  ---------------------------------------------------
  free energy    TOTEN  =       -22.89823256 eV

  energy without entropy =      -22.89823256  energy(sigma->0) =      -22.89823256


--------------------------------------------------------------------------------------------------------




----------------------------------------- Iteration    1(  15)  ---------------------------------------


    POTLOK:  cpu time    0.82: real time    0.83
    SETDIJ:  cpu time    0.01: real time    0.01
     EDDAV:  cpu time    0.33: real time    0.33
       DOS:  cpu time    0.00: real time    0.00
    --------------------------------------------
      LOOP:  cpu time    1.16: real time    1.28

 eigenvalue-minimisations  :    19
 total energy-change (2. order) :-0.4760150E-04  (-0.1908088E-05)
 number of electron      10.0000014 magnetization 
 augmentation part        0.2107936 magnetization 

 Free energy of the ion-electron system (eV)
  ---------------------------------------------------
  alpha Z        PSCENC =         0.89086884
  Ewald energy   TEWEN  =       102.54077057
  -1/2 Hartree   DENC   =      -360.34237074
  -exchange  EXHF       =         0.00000000
  -V(xc)+E(xc)   XCENC  =        32.74714842
  PAW double counting   =       148.87177924     -151.47167327
  entropy T*S    EENTRO =         0.00000000
  eigenvalues    EBANDS =      -115.21230511
  atomic energy  EATOM  =       319.07750188
  ---------------------------------------------------
  free energy    TOTEN  =       -22.89828016 eV

  energy without entropy =      -22.89828016  energy(sigma->0) =      -22.89828016


--------------------------------------------------------------------------------------------------------




 average (electrostatic) potential at core
  the test charge radii are     0.5201  0.6991
  (the norm of the test charge is              1.0000)
       1 -43.3609       2 -43.3609       3 -58.8095       4 -58.8095
 
 
 
 E-fermi :  -5.8899     XC(G=0):  -1.4366     alpha+bet : -0.5000


 k-point   1 :       0.0000    0.0000    0.0000
  band No.  band energies     occupation 
      1     -18.2758      2.00000
      2     -13.7878      2.00000
      3     -11.8664      2.00000
      4      -6.8381      2.00000
      5      -6.8381      2.00000
      6      -0.4312      0.00000
      7      -0.1142      0.00000
      8      -0.1142      0.00000
      9       1.0524      0.00000


--------------------------------------------------------------------------------------------------------


 soft charge-density along one line, spin component           1
         0         1         2         3         4         5         6         7         8         9
 total charge-density along one line
 
 pseudopotential strength for first ion, spin component:           1
 -2.367  -0.014   0.000  -0.002   0.000
 -0.014   0.049   0.000  -0.002   0.000
  0.000   0.000  -0.332   0.000   0.000
 -0.002  -0.002   0.000  -0.327   0.000
  0.000   0.000   0.000   0.000  -0.332
 total augmentation occupancy for first ion, spin component:           1
  1.679  -0.644   0.000   0.326   0.000
 -0.644   0.260   0.000  -0.128   0.000
  0.000   0.000   0.010   0.000   0.000
  0.326  -0.128   0.000   0.064   0.000
  0.000   0.000   0.000   0.000   0.010


------------------------ aborting loop because EDIFF is reached ----------------------------------------


    CHARGE:  cpu time    0.11: real time    0.11
    FORLOC:  cpu time    0.08: real time    0.08
    FORNL :  cpu time    0.04: real time    0.05
    STRESS:  cpu time    0.21: real time    0.21
    FORHAR:  cpu time    0.27: real time    0.27
    MIXING:  cpu time    0.03: real time    0.03

  FORCE on cell =-STRESS in cart. coord.  units (eV):
  Direction    XX          YY          ZZ          XY          YZ          ZX
  --------------------------------------------------------------------------------------
  Alpha Z     0.89087     0.89087     0.89087
  Ewald     -87.17673   -87.17673   276.89416     0.00000     0.00000     0.00000
  Hartree    77.17276    77.17276   205.96456     0.00000     0.00000     0.00000
  E(xc)     -35.00497   -35.00497   -33.46740     0.00000     0.00000     0.00000
  Local    -100.19024  -100.19024  -549.01448     0.00000     0.00000     0.00000
  n-local   -11.23314   -11.23314   -11.05450     0.00000     0.00000     0.00000
  augment    -0.34011    -0.34011    -0.66177     0.00000     0.00000     0.00000
  Kinetic   154.69503   154.69503   108.67130     0.00000     0.00000     0.00000
  Fock        0.00000     0.00000     0.00000     0.00000     0.00000     0.00000
  -------------------------------------------------------------------------------------
  Total      -1.18652    -1.18652    -1.77727     0.00000     0.00000     0.00000
  in kB      -3.71293    -3.71293    -5.56153     0.00000     0.00000     0.00000
  external pressure =       -4.33 kB  Pullay stress =        0.00 kB


 VOLUME and BASIS-vectors are now :
 -----------------------------------------------------------------------------
  energy-cutoff  :      350.00
  volume of cell :      512.00
      direct lattice vectors                 reciprocal lattice vectors
     8.000000000  0.000000000  0.000000000     0.125000000  0.000000000  0.000000000
     0.000000000  8.000000000  0.000000000     0.000000000  0.125000000  0.000000000
     0.000000000  0.000000000  8.000000000     0.000000000  0.000000000  0.125000000

  length of vectors
     8.000000000  8.000000000  8.000000000     0.125000000  0.125000000  0.125000000


 FORCES acting on ions
    electron-ion (+dipol)            ewald-force                    non-local-force                 convergence-correction
 -----------------------------------------------------------------------------------------------
   0.139E-15 0.787E-15 0.541E+02   -.133E-16 -.745E-18 -.605E+02   -.207E-24 0.827E-24 0.620E+01   0.442E-14 0.605E-14 0.204E-02
   -.176E-15 -.405E-15 -.541E+02   0.290E-18 -.244E-17 0.605E+02   -.620E-24 -.827E-24 -.620E+01   0.874E-14 0.582E-14 -.204E-02
   0.125E-14 0.373E-14 -.111E+03   0.245E-16 0.785E-18 0.113E+03   0.000E+00 -.165E-23 -.248E+01   0.449E-13 0.351E-13 -.977E-02
   0.471E-16 -.952E-15 0.111E+03   -.393E-16 0.573E-16 -.113E+03   0.315E-23 0.165E-23 0.248E+01   0.334E-13 0.358E-13 0.977E-02
 -----------------------------------------------------------------------------------------------
   0.126E-14 0.316E-14 0.114E-12   -.277E-16 0.549E-16 0.000E+00   0.233E-23 0.000E+00 -.888E-15   0.915E-13 0.828E-13 -.250E-13
 
 
 POSITION                                       TOTAL-FORCE (eV/Angst)
 -----------------------------------------------------------------------------------
      0.00000      0.00000      6.32601         0.000000      0.000000     -0.244746
      0.00000      0.00000      1.67399         0.000000      0.000000      0.244746
      0.00000      0.00000      0.60808         0.000000      0.000000     -1.076502
      0.00000      0.00000      7.39192         0.000000      0.000000      1.076502
 -----------------------------------------------------------------------------------
    total drift:                                0.000000      0.000000      0.000000


--------------------------------------------------------------------------------------------------------



  FREE ENERGIE OF THE ION-ELECTRON SYSTEM (eV)
  ---------------------------------------------------
  free  energy   TOTEN  =       -22.898280 eV

  energy  without entropy=      -22.898280  energy(sigma->0) =      -22.898280
 


--------------------------------------------------------------------------------------------------------


    POTLOK:  cpu time    0.85: real time    0.85


--------------------------------------------------------------------------------------------------------




--------------------------------------------------------------------------------------------------------


    WAVPRE:  cpu time    0.17: real time    0.17
    FEWALD:  cpu time    0.00: real time    0.00
    ORTHCH:  cpu time    0.01: real time    0.01
     LOOP+:  cpu time   19.18: real time   20.50


----------------------------------------- Iteration    2(   1)  ---------------------------------------


    POTLOK:  cpu time    0.91: real time    0.92
    SETDIJ:  cpu time    0.01: real time    0.03
     EDDAV:  cpu time    0.35: real time    0.35
       DOS:  cpu time    0.00: real time    0.00
    CHARGE:  cpu time    0.12: real time    0.12
    MIXING:  cpu time    0.03: real time    0.03
    --------------------------------------------
      LOOP:  cpu time    1.43: real time    1.45

 eigenvalue-minimisations  :    19
 total energy-change (2. order) : 0.5622290E+00  (-0.2001178E+01)
 number of electron      10.0000024 magnetization 
 augmentation part        0.2304500 magnetization 

 Broyden mixing:
  rms(total) = 0.18574E+00    rms(broyden)= 0.18557E+00
  rms(prec ) = 0.26522E+00
  weight for this iteration     100.00

 Free energy of the ion-electron system (eV)
  ---------------------------------------------------
  alpha Z        PSCENC =         0.89086884
  Ewald energy   TEWEN  =       114.74209449
  -1/2 Hartree   DENC   =      -367.49045604
  -exchange  EXHF       =         0.00000000
  -V(xc)+E(xc)   XCENC  =        32.96553320
  PAW double counting   =       148.87179500     -151.47148025
  entropy T*S    EENTRO =         0.00000000
  eigenvalues    EBANDS =      -119.92186074
  atomic energy  EATOM  =       319.07750188
  ---------------------------------------------------
  free energy    TOTEN  =       -22.33600361 eV

  energy without entropy =      -22.33600361  energy(sigma->0) =      -22.33600361


--------------------------------------------------------------------------------------------------------




----------------------------------------- Iteration    2(   2)  ---------------------------------------


    POTLOK:  cpu time    0.93: real time    0.93
    SETDIJ:  cpu time    0.01: real time    0.01
     EDDAV:  cpu time    0.45: real time    0.45
       DOS:  cpu time    0.00: real time    0.00
    CHARGE:  cpu time    0.13: real time    0.13
    MIXING:  cpu time    0.03: real time    0.03
    --------------------------------------------
      LOOP:  cpu time    1.55: real time    1.60

 eigenvalue-minimisations  :    26
 total energy-change (2. order) : 0.9438823E-01  (-0.2780144E-01)
 number of electron      10.0000024 magnetization 
 augmentation part        0.2303226 magnetization 

 Broyden mixing:
  rms(total) = 0.95477E-01    rms(broyden)= 0.95454E-01
  rms(prec ) = 0.13280E+00
  weight for this iteration     100.00

 eigenvalues of (default mixing * dielectric matrix)
  average eigenvalue GAMMA=   2.0152
  2.0152

 Free energy of the ion-electron system (eV)
  ---------------------------------------------------
  alpha Z        PSCENC =         0.89086884
  Ewald energy   TEWEN  =       114.74209449
  -1/2 Hartree   DENC   =      -370.42270188
  -exchange  EXHF       =         0.00000000
  -V(xc)+E(xc)   XCENC  =        33.09734706
  PAW double counting   =       157.51306138     -160.16631792
  entropy T*S    EENTRO =         0.00000000
  eigenvalues    EBANDS =      -116.97346924
  atomic energy  EATOM  =       319.07750188
  ---------------------------------------------------
  free energy    TOTEN  =       -22.24161538 eV

  energy without entropy =      -22.24161538  energy(sigma->0) =      -22.24161538


--------------------------------------------------------------------------------------------------------




----------------------------------------- Iteration    2(   3)  ---------------------------------------


    POTLOK:  cpu time    0.86: real time    0.86
    SETDIJ:  cpu time    0.01: real time    0.01
     EDDAV:  cpu time    0.44: real time    0.44
       DOS:  cpu time    0.00: real time    0.00
    CHARGE:  cpu time    0.11: real time    0.11
    MIXING:  cpu time    0.03: real time    0.03
    --------------------------------------------
      LOOP:  cpu time    1.45: real time    1.55

 eigenvalue-minimisations  :    27
 total energy-change (2. order) : 0.2032689E-01  (-0.2233674E-01)
 number of electron      10.0000025 magnetization 
 augmentation part        0.2249237 magnetization 

 Broyden mixing:
  rms(total) = 0.31397E-01    rms(broyden)= 0.31361E-01
  rms(prec ) = 0.50503E-01
  weight for this iteration     100.00

 eigenvalues of (default mixing * dielectric matrix)
  average eigenvalue GAMMA=   1.2186
  1.7861  0.6512

 Free energy of the ion-electron system (eV)
  ---------------------------------------------------
  alpha Z        PSCENC =         0.89086884
  Ewald energy   TEWEN  =       114.74209449
  -1/2 Hartree   DENC   =      -373.28980901
  -exchange  EXHF       =         0.00000000
  -V(xc)+E(xc)   XCENC  =        33.23364746
  PAW double counting   =       166.42489257     -169.13043927
  entropy T*S    EENTRO =         0.00000000
  eigenvalues    EBANDS =      -114.17004544
  atomic energy  EATOM  =       319.07750188
  ---------------------------------------------------
  free energy    TOTEN  =       -22.22128848 eV

  energy without entropy =      -22.22128848  energy(sigma->0) =      -22.22128848


--------------------------------------------------------------------------------------------------------




----------------------------------------- Iteration    2(   4)  ---------------------------------------


    POTLOK:  cpu time    0.87: real time    0.87
    SETDIJ:  cpu time    0.01: real time    0.01
     EDDAV:  cpu time    0.32: real time    0.32
       DOS:  cpu time    0.00: real time    0.00
    CHARGE:  cpu time    0.11: real time    0.11
    MIXING:  cpu time    0.03: real time    0.03
    --------------------------------------------
      LOOP:  cpu time    1.35: real time    1.36

 eigenvalue-minimisations  :    18
 total energy-change (2. order) : 0.3436393E-02  (-0.1409729E-02)
 number of electron      10.0000025 magnetization 
 augmentation part        0.2260245 magnetization 

 Broyden mixing:
  rms(total) = 0.13156E-01    rms(broyden)= 0.13150E-01
  rms(prec ) = 0.18876E-01
  weight for this iteration     100.00

 eigenvalues of (default mixing * dielectric matrix)
  average eigenvalue GAMMA=   1.4798
  2.1612  1.1391  1.1391

 Free energy of the ion-electron system (eV)
  ---------------------------------------------------
  alpha Z        PSCENC =         0.89086884
  Ewald energy   TEWEN  =       114.74209449
  -1/2 Hartree   DENC   =      -372.54966046
  -exchange  EXHF       =         0.00000000
  -V(xc)+E(xc)   XCENC  =        33.19797975
  PAW double counting   =       165.11845506     -167.81204445
  entropy T*S    EENTRO =         0.00000000
  eigenvalues    EBANDS =      -114.88304721
  atomic energy  EATOM  =       319.07750188
  ---------------------------------------------------
  free energy    TOTEN  =       -22.21785209 eV

  energy without entropy =      -22.21785209  energy(sigma->0) =      -22.21785209


--------------------------------------------------------------------------------------------------------




----------------------------------------- Iteration    2(   5)  ---------------------------------------


    POTLOK:  cpu time    0.87: real time    0.87
    SETDIJ:  cpu time    0.01: real time    0.01
     EDDAV:  cpu time    0.33: real time    0.33
       DOS:  cpu time    0.00: real time    0.00
    CHARGE:  cpu time    0.11: real time    0.11
    MIXING:  cpu time    0.03: real time    0.03
    --------------------------------------------
      LOOP:  cpu time    1.35: real time    1.37

 eigenvalue-minimisations  :    18
 total energy-change (2. order) : 0.6995312E-04  (-0.2067365E-03)
 number of electron      10.0000025 magnetization 
 augmentation part        0.2263811 magnetization 

 Broyden mixing:
  rms(total) = 0.23337E-02    rms(broyden)= 0.23271E-02
  rms(prec ) = 0.40825E-02
  weight for this iteration     100.00

 eigenvalues of (default mixing * dielectric matrix)
  average eigenvalue GAMMA=   1.4142
  2.2122  1.4750  0.9848  0.9848

 Free energy of the ion-electron system (eV)
  ---------------------------------------------------
  alpha Z        PSCENC =         0.89086884
  Ewald energy   TEWEN  =       114.74209449
  -1/2 Hartree   DENC   =      -372.36768592
  -exchange  EXHF       =         0.00000000
  -V(xc)+E(xc)   XCENC  =        33.18929202
  PAW double counting   =       165.93395258     -168.62440668
  entropy T*S    EENTRO =         0.00000000
  eigenvalues    EBANDS =      -115.05939936
  atomic energy  EATOM  =       319.07750188
  ---------------------------------------------------
  free energy    TOTEN  =       -22.21778214 eV

  energy without entropy =      -22.21778214  energy(sigma->0) =      -22.21778214


--------------------------------------------------------------------------------------------------------




----------------------------------------- Iteration    2(   6)  ---------------------------------------


    POTLOK:  cpu time    0.88: real time    0.88
    SETDIJ:  cpu time    0.01: real time    0.40
     EDDAV:  cpu time    0.33: real time    0.34
       DOS:  cpu time    0.00: real time    0.00
    --------------------------------------------
      LOOP:  cpu time    1.22: real time    1.65

 eigenvalue-minimisations  :    19
 total energy-change (2. order) :-0.8456446E-04  (-0.2823890E-04)
 number of electron      10.0000025 magnetization 
 augmentation part        0.2263811 magnetization 

 Free energy of the ion-electron system (eV)
  ---------------------------------------------------
  alpha Z        PSCENC =         0.89086884
  Ewald energy   TEWEN  =       114.74209449
  -1/2 Hartree   DENC   =      -372.29807788
  -exchange  EXHF       =         0.00000000
  -V(xc)+E(xc)   XCENC  =        33.18604154
  PAW double counting   =       165.98991684     -168.67917806
  entropy T*S    EENTRO =         0.00000000
  eigenvalues    EBANDS =      -115.12703435
  atomic energy  EATOM  =       319.07750188
  ---------------------------------------------------
  free energy    TOTEN  =       -22.21786670 eV

  energy without entropy =      -22.21786670  energy(sigma->0) =      -22.21786670


--------------------------------------------------------------------------------------------------------




 average (electrostatic) potential at core
  the test charge radii are     0.5201  0.6991
  (the norm of the test charge is              1.0000)
       1 -42.6946       2 -42.6946       3 -58.5369       4 -58.5369
 
 
 
 E-fermi :  -6.2468     XC(G=0):  -1.5446     alpha+bet : -0.5000


 k-point   1 :       0.0000    0.0000    0.0000
  band No.  band energies     occupation 
      1     -18.6613      2.00000
      2     -13.0024      2.00000
      3     -11.4750      2.00000
      4      -7.2124      2.00000
      5      -7.2124      2.00000
      6      -0.4999      0.00000
      7       0.6398      0.00000
      8       0.6398      0.00000
      9       0.8403      0.00000


--------------------------------------------------------------------------------------------------------


 soft charge-density along one line, spin component           1
         0         1         2         3         4         5         6         7         8         9
 total charge-density along one line
 
 pseudopotential strength for first ion, spin component:           1
 -2.361  -0.013   0.000  -0.002   0.000
 -0.013   0.049   0.000  -0.001   0.000
  0.000   0.000  -0.336   0.000   0.000
 -0.002  -0.001   0.000  -0.332   0.000
  0.000   0.000   0.000   0.000  -0.336
 total augmentation occupancy for first ion, spin component:           1
  1.550  -0.601   0.000   0.270   0.000
 -0.601   0.244   0.000  -0.107   0.000
  0.000   0.000   0.007   0.000   0.000
  0.270  -0.107   0.000   0.048   0.000
  0.000   0.000   0.000   0.000   0.007


------------------------ aborting loop because EDIFF is reached ----------------------------------------


    CHARGE:  cpu time    0.11: real time    0.11
    FORLOC:  cpu time    0.08: real time    0.08
    FORNL :  cpu time    0.04: real time    0.05
    STRESS:  cpu time    0.21: real time    0.21
    FORHAR:  cpu time    0.27: real time    0.27
    MIXING:  cpu time    0.03: real time    0.03

  FORCE on cell =-STRESS in cart. coord.  units (eV):
  Direction    XX          YY          ZZ          XY          YZ          ZX
  --------------------------------------------------------------------------------------
  Alpha Z     0.89087     0.89087     0.89087
  Ewald     -87.08214   -87.08214   288.90632     0.00000     0.00000     0.00000
  Hartree    82.06592    82.06592   208.47317     0.00000     0.00000     0.00000
  E(xc)     -35.45806   -35.45806   -33.89321     0.00000     0.00000     0.00000
  Local    -107.11164  -107.11164  -555.51238     0.00000     0.00000     0.00000
  n-local   -11.61938   -11.61938   -11.30495     0.00000     0.00000     0.00000
  augment    -0.42269    -0.42269    -0.93329     0.00000     0.00000     0.00000
  Kinetic   157.62939   157.62939   112.37600     0.00000     0.00000     0.00000
  Fock        0.00000     0.00000     0.00000     0.00000     0.00000     0.00000
  -------------------------------------------------------------------------------------
  Total      -1.10773    -1.10773     9.00253     0.00000     0.00000     0.00000
  in kB      -3.46636    -3.46636    28.17121     0.00000     0.00000     0.00000
  external pressure =        7.08 kB  Pullay stress =        0.00 kB


 VOLUME and BASIS-vectors are now :
 -----------------------------------------------------------------------------
  energy-cutoff  :      350.00
  volume of cell :      512.00
      direct lattice vectors                 reciprocal lattice vectors
     8.000000000  0.000000000  0.000000000     0.125000000  0.000000000  0.000000000
     0.000000000  8.000000000  0.000000000     0.000000000  0.125000000  0.000000000
     0.000000000  0.000000000  8.000000000     0.000000000  0.000000000  0.125000000

  length of vectors
     8.000000000  8.000000000  8.000000000     0.125000000  0.125000000  0.125000000


 FORCES acting on ions
    electron-ion (+dipol)            ewald-force                    non-local-force                 convergence-correction
 -----------------------------------------------------------------------------------------------
   -.113E-14 0.171E-14 0.521E+02   -.118E-16 -.935E-19 -.554E+02   0.000E+00 0.000E+00 0.524E+01   0.594E-14 0.625E-14 -.133E-01
   0.114E-14 0.360E-14 -.521E+02   -.271E-17 -.189E-17 0.554E+02   0.129E-25 -.129E-25 -.524E+01   0.682E-14 0.566E-14 0.133E-01
   0.368E-15 -.179E-14 -.136E+03   0.620E-16 0.709E-16 0.150E+03   0.103E-24 0.103E-24 0.162E+01   0.407E-13 0.357E-13 0.552E-01
   0.613E-15 0.767E-15 0.136E+03   -.752E-16 -.141E-16 -.150E+03   0.000E+00 0.000E+00 -.162E+01   0.388E-13 0.378E-13 -.552E-01
 -----------------------------------------------------------------------------------------------
   0.984E-15 0.428E-14 0.284E-13   -.277E-16 0.549E-16 0.000E+00   0.116E-24 0.905E-25 0.000E+00   0.923E-13 0.854E-13 -.220E-13
 
 
 POSITION                                       TOTAL-FORCE (eV/Angst)
 -----------------------------------------------------------------------------------
      0.00000      0.00000      6.31420         0.000000      0.000000      1.918998
      0.00000      0.00000      1.68580         0.000000      0.000000     -1.918998
      0.00000      0.00000      0.55615         0.000000      0.000000     14.929267
      0.00000      0.00000      7.44385         0.000000      0.000000    -14.929267
 -----------------------------------------------------------------------------------
    total drift:                                0.000000      0.000000      0.000000


--------------------------------------------------------------------------------------------------------



  FREE ENERGIE OF THE ION-ELECTRON SYSTEM (eV)
  ---------------------------------------------------
  free  energy   TOTEN  =       -22.217867 eV

  energy  without entropy=      -22.217867  energy(sigma->0) =      -22.217867
 
 d Force =-0.7391879E+00[-0.160E+01, 0.118E+00]  d Energy =-0.6804135E+00-0.588E-01
 d Force =-0.1226166E+02[-0.142E+02,-0.103E+02]  d Ewald  =-0.1220132E+02-0.603E-01


--------------------------------------------------------------------------------------------------------


    POTLOK:  cpu time    0.89: real time    0.89


--------------------------------------------------------------------------------------------------------


 Steepest descent step on ions:
 trial-energy change:    0.680413  1 .order    0.739188   -0.117592    1.595968
  (g-gl).g = 0.118E+00      g.g   = 0.118E+00  gl.gl    = 0.000E+00
 g(Force)  = 0.118E+00   g(Stress)= 0.000E+00 ortho     = 0.000E+00
 gamma     =   0.00000
 trial     =   1.00000
 opt step  =   0.08455  (harmonic =   0.06862) maximal distance =0.00439118
 next E    =   -22.903287   (d E  =  -0.00501)


--------------------------------------------------------------------------------------------------------


    WAVPRE:  cpu time    0.16: real time    0.16
    FEWALD:  cpu time    0.00: real time    0.00
    ORTHCH:  cpu time    0.01: real time    0.01
     LOOP+:  cpu time   10.18: real time   10.83


----------------------------------------- Iteration    3(   1)  ---------------------------------------


    POTLOK:  cpu time    0.87: real time    0.88
    SETDIJ:  cpu time    0.01: real time    0.01
     EDDAV:  cpu time    0.32: real time    0.32
       DOS:  cpu time    0.00: real time    0.00
    CHARGE:  cpu time    0.11: real time    0.11
    MIXING:  cpu time    0.03: real time    0.03
    --------------------------------------------
      LOOP:  cpu time    1.35: real time    1.35

 eigenvalue-minimisations  :    18
 total energy-change (2. order) :-0.7853703E+00  (-0.1712679E+01)
 number of electron      10.0000015 magnetization 
 augmentation part        0.2066930 magnetization 

 Broyden mixing:
  rms(total) = 0.16605E+00    rms(broyden)= 0.16590E+00
  rms(prec ) = 0.24046E+00
  weight for this iteration     100.00

 Free energy of the ion-electron system (eV)
  ---------------------------------------------------
  alpha Z        PSCENC =         0.89086884
  Ewald energy   TEWEN  =       103.42408620
  -1/2 Hartree   DENC   =      -365.55394552
  -exchange  EXHF       =         0.00000000
  -V(xc)+E(xc)   XCENC  =        32.97515314
  PAW double counting   =       166.28450185     -168.97563559
  entropy T*S    EENTRO =         0.00000000
  eigenvalues    EBANDS =      -111.12568323
  atomic energy  EATOM  =       319.07750188
  ---------------------------------------------------
  free energy    TOTEN  =       -23.00315242 eV

  energy without entropy =      -23.00315242  energy(sigma->0) =      -23.00315242


--------------------------------------------------------------------------------------------------------




----------------------------------------- Iteration    3(   2)  ---------------------------------------


    POTLOK:  cpu time    0.83: real time    0.83
    SETDIJ:  cpu time    0.01: real time    0.01
     EDDAV:  cpu time    0.42: real time    0.42
       DOS:  cpu time    0.00: real time    0.00
    CHARGE:  cpu time    0.11: real time    0.11
    MIXING:  cpu time    0.03: real time    0.03
    --------------------------------------------
      LOOP:  cpu time    1.40: real time    1.41

 eigenvalue-minimisations  :    26
 total energy-change (2. order) : 0.8101816E-01  (-0.2204689E-01)
 number of electron      10.0000015 magnetization 
 augmentation part        0.2090863 magnetization 

 Broyden mixing:
  rms(total) = 0.87653E-01    rms(broyden)= 0.87632E-01
  rms(prec ) = 0.12062E+00
  weight for this iteration     100.00

 eigenvalues of (default mixing * dielectric matrix)
  average eigenvalue GAMMA=   1.9736
  1.9736

 Free energy of the ion-electron system (eV)
  ---------------------------------------------------
  alpha Z        PSCENC =         0.89086884
  Ewald energy   TEWEN  =       103.42408620
  -1/2 Hartree   DENC   =      -362.83017877
  -exchange  EXHF       =         0.00000000
  -V(xc)+E(xc)   XCENC  =        32.84755462
  PAW double counting   =       157.63013810     -160.26833461
  entropy T*S    EENTRO =         0.00000000
  eigenvalues    EBANDS =      -113.69377051
  atomic energy  EATOM  =       319.07750188
  ---------------------------------------------------
  free energy    TOTEN  =       -22.92213425 eV

  energy without entropy =      -22.92213425  energy(sigma->0) =      -22.92213425


--------------------------------------------------------------------------------------------------------




----------------------------------------- Iteration    3(   3)  ---------------------------------------


    POTLOK:  cpu time    0.77: real time    0.77
    SETDIJ:  cpu time    0.01: real time    0.01
     EDDAV:  cpu time    0.32: real time    0.32
       DOS:  cpu time    0.00: real time    0.00
    CHARGE:  cpu time    0.11: real time    0.11
    MIXING:  cpu time    0.03: real time    0.03
    --------------------------------------------
      LOOP:  cpu time    1.25: real time    1.26

 eigenvalue-minimisations  :    18
 total energy-change (2. order) : 0.1805040E-01  (-0.1542210E-01)
 number of electron      10.0000014 magnetization 
 augmentation part        0.2126813 magnetization 

 Broyden mixing:
  rms(total) = 0.22187E-01    rms(broyden)= 0.22139E-01
  rms(prec ) = 0.35531E-01
  weight for this iteration     100.00

 eigenvalues of (default mixing * dielectric matrix)
  average eigenvalue GAMMA=   1.6508
  1.6508  1.6508

 Free energy of the ion-electron system (eV)
  ---------------------------------------------------
  alpha Z        PSCENC =         0.89086884
  Ewald energy   TEWEN  =       103.42408620
  -1/2 Hartree   DENC   =      -360.68572189
  -exchange  EXHF       =         0.00000000
  -V(xc)+E(xc)   XCENC  =        32.74980554
  PAW double counting   =       150.31161750     -152.90837108
  entropy T*S    EENTRO =         0.00000000
  eigenvalues    EBANDS =      -115.76387085
  atomic energy  EATOM  =       319.07750188
  ---------------------------------------------------
  free energy    TOTEN  =       -22.90408385 eV

  energy without entropy =      -22.90408385  energy(sigma->0) =      -22.90408385


--------------------------------------------------------------------------------------------------------




----------------------------------------- Iteration    3(   4)  ---------------------------------------


    POTLOK:  cpu time    0.79: real time    0.79
    SETDIJ:  cpu time    0.01: real time    0.01
     EDDAV:  cpu time    0.32: real time    0.32
       DOS:  cpu time    0.00: real time    0.00
    CHARGE:  cpu time    0.11: real time    0.11
    MIXING:  cpu time    0.03: real time    0.03
    --------------------------------------------
      LOOP:  cpu time    1.27: real time    1.29

 eigenvalue-minimisations  :    18
 total energy-change (2. order) :-0.1442533E-03  (-0.3208057E-02)
 number of electron      10.0000015 magnetization 
 augmentation part        0.2112355 magnetization 

 Broyden mixing:
  rms(total) = 0.19448E-01    rms(broyden)= 0.19446E-01
  rms(prec ) = 0.27670E-01
  weight for this iteration     100.00

 eigenvalues of (default mixing * dielectric matrix)
  average eigenvalue GAMMA=   1.6684
  2.5511  1.2271  1.2271

 Free energy of the ion-electron system (eV)
  ---------------------------------------------------
  alpha Z        PSCENC =         0.89086884
  Ewald energy   TEWEN  =       103.42408620
  -1/2 Hartree   DENC   =      -361.79325926
  -exchange  EXHF       =         0.00000000
  -V(xc)+E(xc)   XCENC  =        32.80208819
  PAW double counting   =       151.91707076     -154.53056117
  entropy T*S    EENTRO =         0.00000000
  eigenvalues    EBANDS =      -114.69202356
  atomic energy  EATOM  =       319.07750188
  ---------------------------------------------------
  free energy    TOTEN  =       -22.90422811 eV

  energy without entropy =      -22.90422811  energy(sigma->0) =      -22.90422811


--------------------------------------------------------------------------------------------------------




----------------------------------------- Iteration    3(   5)  ---------------------------------------


    POTLOK:  cpu time    0.79: real time    0.79
    SETDIJ:  cpu time    0.01: real time    0.01
     EDDAV:  cpu time    0.32: real time    0.32
       DOS:  cpu time    0.00: real time    0.00
    CHARGE:  cpu time    0.11: real time    0.11
    MIXING:  cpu time    0.03: real time    0.03
    --------------------------------------------
      LOOP:  cpu time    1.27: real time    1.35

 eigenvalue-minimisations  :    18
 total energy-change (2. order) : 0.1137696E-02  (-0.6165869E-03)
 number of electron      10.0000015 magnetization 
 augmentation part        0.2118319 magnetization 

 Broyden mixing:
  rms(total) = 0.20122E-02    rms(broyden)= 0.20074E-02
  rms(prec ) = 0.33430E-02
  weight for this iteration     100.00

 eigenvalues of (default mixing * dielectric matrix)
  average eigenvalue GAMMA=   1.4952
  2.3214  1.2603  1.2603  1.1390

 Free energy of the ion-electron system (eV)
  ---------------------------------------------------
  alpha Z        PSCENC =         0.89086884
  Ewald energy   TEWEN  =       103.42408620
  -1/2 Hartree   DENC   =      -361.30270486
  -exchange  EXHF       =         0.00000000
  -V(xc)+E(xc)   XCENC  =        32.77997394
  PAW double counting   =       149.96390600     -152.56796576
  entropy T*S    EENTRO =         0.00000000
  eigenvalues    EBANDS =      -115.16875666
  atomic energy  EATOM  =       319.07750188
  ---------------------------------------------------
  free energy    TOTEN  =       -22.90309041 eV

  energy without entropy =      -22.90309041  energy(sigma->0) =      -22.90309041


--------------------------------------------------------------------------------------------------------




----------------------------------------- Iteration    3(   6)  ---------------------------------------


    POTLOK:  cpu time    0.79: real time    0.80
    SETDIJ:  cpu time    0.01: real time    0.01
     EDDAV:  cpu time    0.33: real time    0.33
       DOS:  cpu time    0.00: real time    0.00
    --------------------------------------------
      LOOP:  cpu time    1.14: real time    2.84

 eigenvalue-minimisations  :    19
 total energy-change (2. order) :-0.6315223E-04  (-0.3735579E-04)
 number of electron      10.0000015 magnetization 
 augmentation part        0.2118319 magnetization 

 Free energy of the ion-electron system (eV)
  ---------------------------------------------------
  alpha Z        PSCENC =         0.89086884
  Ewald energy   TEWEN  =       103.42408620
  -1/2 Hartree   DENC   =      -361.31803309
  -exchange  EXHF       =         0.00000000
  -V(xc)+E(xc)   XCENC  =        32.78044709
  PAW double counting   =       150.04719573     -152.65178596
  entropy T*S    EENTRO =         0.00000000
  eigenvalues    EBANDS =      -115.15343426
  atomic energy  EATOM  =       319.07750188
  ---------------------------------------------------
  free energy    TOTEN  =       -22.90315356 eV

  energy without entropy =      -22.90315356  energy(sigma->0) =      -22.90315356


--------------------------------------------------------------------------------------------------------




 average (electrostatic) potential at core
  the test charge radii are     0.5201  0.6991
  (the norm of the test charge is              1.0000)
       1 -43.2897       2 -43.2897       3 -58.7812       4 -58.7812
 
 
 
 E-fermi :  -5.8947     XC(G=0):  -1.3570     alpha+bet : -0.5000


 k-point   1 :       0.0000    0.0000    0.0000
  band No.  band energies     occupation 
      1     -18.3057      2.00000
      2     -13.7152      2.00000
      3     -11.8311      2.00000
      4      -6.8623      2.00000
      5      -6.8623      2.00000
      6      -0.3800      0.00000
      7      -0.0456      0.00000
      8      -0.0456      0.00000
      9       1.0633      0.00000


--------------------------------------------------------------------------------------------------------


 soft charge-density along one line, spin component           1
         0         1         2         3         4         5         6         7         8         9
 total charge-density along one line
 
 pseudopotential strength for first ion, spin component:           1
 -2.367  -0.014   0.000  -0.002   0.000
 -0.014   0.049   0.000  -0.002   0.000
  0.000   0.000  -0.333   0.000   0.000
 -0.002  -0.002   0.000  -0.327   0.000
  0.000   0.000   0.000   0.000  -0.333
 total augmentation occupancy for first ion, spin component:           1
  1.667  -0.640   0.000   0.321   0.000
 -0.640   0.259   0.000  -0.126   0.000
  0.000   0.000   0.010   0.000   0.000
  0.321  -0.126   0.000   0.062   0.000
  0.000   0.000   0.000   0.000   0.010


------------------------ aborting loop because EDIFF is reached ----------------------------------------


    CHARGE:  cpu time    0.11: real time    0.11
    FORLOC:  cpu time    0.08: real time    0.08
    FORNL :  cpu time    0.04: real time    0.05
    STRESS:  cpu time    0.21: real time    0.21
    FORHAR:  cpu time    0.27: real time    0.27
    MIXING:  cpu time    0.03: real time    0.03

  FORCE on cell =-STRESS in cart. coord.  units (eV):
  Direction    XX          YY          ZZ          XY          YZ          ZX
  --------------------------------------------------------------------------------------
  Alpha Z     0.89087     0.89087     0.89087
  Ewald     -87.16845   -87.16845   277.76092     0.00000     0.00000     0.00000
  Hartree    77.55942    77.55942   206.16753     0.00000     0.00000     0.00000
  E(xc)     -35.03874   -35.03874   -33.49884     0.00000     0.00000     0.00000
  Local    -100.71717  -100.71717  -549.62688     0.00000     0.00000     0.00000
  n-local   -11.25367   -11.25367   -11.06468     0.00000     0.00000     0.00000
  augment    -0.34698    -0.34698    -0.67842     0.00000     0.00000     0.00000
  Kinetic   154.90268   154.90268   108.89671     0.00000     0.00000     0.00000
  Fock        0.00000     0.00000     0.00000     0.00000     0.00000     0.00000
  -------------------------------------------------------------------------------------
  Total      -1.17203    -1.17203    -1.15279     0.00000     0.00000     0.00000
  in kB      -3.66756    -3.66756    -3.60736     0.00000     0.00000     0.00000
  external pressure =       -3.65 kB  Pullay stress =        0.00 kB


 VOLUME and BASIS-vectors are now :
 -----------------------------------------------------------------------------
  energy-cutoff  :      350.00
  volume of cell :      512.00
      direct lattice vectors                 reciprocal lattice vectors
     8.000000000  0.000000000  0.000000000     0.125000000  0.000000000  0.000000000
     0.000000000  8.000000000  0.000000000     0.000000000  0.125000000  0.000000000
     0.000000000  0.000000000  8.000000000     0.000000000  0.000000000  0.125000000

  length of vectors
     8.000000000  8.000000000  8.000000000     0.125000000  0.125000000  0.125000000


 FORCES acting on ions
    electron-ion (+dipol)            ewald-force                    non-local-force                 convergence-correction
 -----------------------------------------------------------------------------------------------
   0.676E-15 -.268E-14 0.539E+02   0.445E-17 -.227E-17 -.601E+02   0.000E+00 -.162E-26 0.611E+01   0.607E-14 0.591E-14 -.800E-03
   -.607E-15 0.137E-14 -.539E+02   -.294E-17 0.109E-16 0.601E+02   -.162E-26 0.364E-26 -.611E+01   0.634E-14 0.567E-14 0.800E-03
   0.224E-15 0.581E-14 -.114E+03   0.196E-16 0.196E-17 0.116E+03   -.646E-26 -.646E-26 -.216E+01   0.393E-13 0.339E-13 0.174E-01
   0.168E-14 -.444E-14 0.114E+03   -.488E-16 0.443E-16 -.116E+03   0.129E-25 -.969E-26 0.216E+01   0.370E-13 0.354E-13 -.174E-01
 -----------------------------------------------------------------------------------------------
   0.197E-14 0.653E-16 0.142E-12   -.277E-16 0.549E-16 0.000E+00   0.485E-26 -.141E-25 0.000E+00   0.887E-13 0.809E-13 -.369E-13
 
 
 POSITION                                       TOTAL-FORCE (eV/Angst)
 -----------------------------------------------------------------------------------
      0.00000      0.00000      6.32501         0.000000      0.000000     -0.031285
      0.00000      0.00000      1.67499         0.000000      0.000000      0.031285
      0.00000      0.00000      0.60369         0.000000      0.000000      0.009237
      0.00000      0.00000      7.39631         0.000000      0.000000     -0.009237
 -----------------------------------------------------------------------------------
    total drift:                                0.000000      0.000000      0.000000


--------------------------------------------------------------------------------------------------------



  FREE ENERGIE OF THE ION-ELECTRON SYSTEM (eV)
  ---------------------------------------------------
  free  energy   TOTEN  =       -22.903154 eV

  energy  without entropy=      -22.903154  energy(sigma->0) =      -22.903154
 
 d Force = 0.7306121E+00[ 0.202E-03, 0.146E+01]  d Energy = 0.6852869E+00 0.453E-01
 d Force = 0.1136517E+02[ 0.970E+01, 0.130E+02]  d Ewald  = 0.1131801E+02 0.472E-01


--------------------------------------------------------------------------------------------------------


    POTLOK:  cpu time    0.82: real time    0.82


--------------------------------------------------------------------------------------------------------




--------------------------------------------------------------------------------------------------------


  
 reached required accuracy - stopping structural energy minimisation
 writing wavefunctions
     LOOP+:  cpu time    9.26: real time   11.66
    4ORBIT:  cpu time    0.00: real time    0.00

 total amount of memory used by VASP on root node    82175. kBytes
========================================================================

   base      :      30000. kBytes
   nonl-proj :       1444. kBytes
   fftplans  :      17864. kBytes
   grid      :      31769. kBytes
   one-center:         12. kBytes
   wavefun   :       1086. kBytes
 
  
  
 General timing and accounting informations for this job:
 ========================================================
  
                  Total CPU time used (sec):       40.342
                            User time (sec):       39.755
                          System time (sec):        0.587
                         Elapsed time (sec):       44.966
  
                   Maximum memory used (kb):           0.
                   Average memory used (kb):           0.
  
                          Minor page faults:       158345
                          Major page faults:            0
                 Voluntary context switches:         2460
