<?xml version="1.0" encoding="ISO-8859-1"?>
<modeling>
 <generator>
  <i name="program" type="string">vasp </i>
  <i name="version" type="string">5.2.12  </i>
  <i name="subversion" type="string">11Nov11 complex                                                      parallel </i>
  <i name="platform" type="string">LinuxIFC </i>
  <i name="date" type="string">2012 11 03 </i>
  <i name="time" type="string">02:06:34 </i>
 </generator>
 <incar>
  <i type="string" name="PREC">normal</i>
  <i type="int" name="IBRION">     2</i>
  <i type="int" name="NSW">    10</i>
  <i name="ENCUT">    350.00000000</i>
  <i type="int" name="ISMEAR">     0</i>
 </incar>
 <kpoints>
  <generation param="Monkhorst-Pack">
   <v type="int" name="divisions">       1        1        1 </v>
   <v name="usershift">      0.00000000       0.00000000       0.00000000 </v>
   <v name="genvec1">      1.00000000       0.00000000       0.00000000 </v>
   <v name="genvec2">      0.00000000       1.00000000       0.00000000 </v>
   <v name="genvec3">      0.00000000       0.00000000       1.00000000 </v>
   <v name="shift">      0.00000000       0.00000000       0.00000000 </v>
  </generation>
  <varray name="kpointlist" >
   <v>       0.00000000       0.00000000       0.00000000 </v>
  </varray>
  <varray name="weights" >
   <v>       1.00000000 </v>
  </varray>
 </kpoints>
 <parameters>
  <separator name="general" >
   <i type="string" name="SYSTEM">unknown system</i>
   <i type="logical" name="LCOMPAT"> F  </i>
  </separator>
  <separator name="electronic" >
   <i type="string" name="PREC">normal</i>
   <i name="ENMAX">    350.00000000</i>
   <i name="ENAUG">    644.87300000</i>
   <i name="EDIFF">      0.00010000</i>
   <i type="int" name="IALGO">    38</i>
   <i type="int" name="IWAVPR">    11</i>
   <i type="int" name="NBANDS">     9</i>
   <i name="NELECT">     10.00000000</i>
   <i type="int" name="TURBO">     0</i>
   <i type="int" name="IRESTART">     0</i>
   <i type="int" name="NREBOOT">     0</i>
   <i type="int" name="NMIN">     0</i>
   <i name="EREF">      0.00000000</i>
   <separator name="electronic smearing" >
    <i type="int" name="ISMEAR">     0</i>
    <i name="SIGMA">      0.20000000</i>
    <i name="KSPACING">      0.50000000</i>
    <i type="logical" name="KGAMMA"> T  </i>
   </separator>
   <separator name="electronic projectors" >
    <i type="logical" name="LREAL"> F  </i>
    <v name="ROPT">      0.00000000      0.00000000</v>
    <i type="int" name="LMAXPAW">  -100</i>
    <i type="int" name="LMAXMIX">     2</i>
    <i type="logical" name="NLSPLINE"> F  </i>
   </separator>
   <separator name="electronic startup" >
    <i type="int" name="ISTART">     0</i>
    <i type="int" name="ICHARG">     2</i>
    <i type="int" name="INIWAV">     1</i>
   </separator>
   <separator name="electronic spin" >
    <i type="int" name="ISPIN">     1</i>
    <i type="logical" name="LNONCOLLINEAR"> F  </i>
    <v name="MAGMOM">      1.00000000      1.00000000      1.00000000      1.00000000</v>
    <i name="NUPDOWN">     -1.00000000</i>
    <i type="logical" name="LSORBIT"> F  </i>
    <v name="SAXIS">      0.00000000      0.00000000      1.00000000</v>
    <i type="logical" name="LSPIRAL"> F  </i>
    <v name="QSPIRAL">      0.00000000      0.00000000      0.00000000</v>
    <i type="logical" name="LZEROZ"> F  </i>
   </separator>
   <separator name="electronic exchange-correlation" >
    <i type="logical" name="LASPH"> F  </i>
    <i type="logical" name="LMETAGGA"> F  </i>
   </separator>
   <separator name="electronic convergence" >
    <i type="int" name="NELM">    60</i>
    <i type="int" name="NELMDL">    -5</i>
    <i type="int" name="NELMIN">     2</i>
    <i name="ENINI">    350.00000000</i>
    <separator name="electronic convergence detail" >
     <i type="logical" name="LDIAG"> T  </i>
     <i type="logical" name="LSUBROT"> T  </i>
     <i name="WEIMIN">      0.00100000</i>
     <i name="EBREAK">      0.00000278</i>
     <i name="DEPER">      0.30000000</i>
     <i type="int" name="NRMM">     4</i>
     <i name="TIME">      0.40000000</i>
    </separator>
   </separator>
   <separator name="electronic mixer" >
    <i name="AMIX">      0.40000000</i>
    <i name="BMIX">      1.00000000</i>
    <i name="AMIN">      0.10000000</i>
    <i name="AMIX_MAG">      1.60000000</i>
    <i name="BMIX_MAG">      1.00000000</i>
    <separator name="electronic mixer details" >
     <i type="int" name="IMIX">     4</i>
     <i type="int" name="MAXMIX">   -45</i>
     <i name="WC">    100.00000000</i>
     <i type="int" name="INIMIX">     1</i>
     <i type="int" name="MIXPRE">     1</i>
     <i type="int" name="MREMOVE">     5</i>
    </separator>
   </separator>
   <separator name="electronic dipolcorrection" >
    <i type="logical" name="LDIPOL"> F  </i>
    <i type="logical" name="LMONO"> F  </i>
    <i type="int" name="IDIPOL">     0</i>
    <i name="EPSILON">      1.00000000</i>
    <v name="DIPOL">   -100.00000000   -100.00000000   -100.00000000</v>
    <i name="EFIELD">      0.00000000</i>
   </separator>
  </separator>
  <separator name="grids" >
   <i type="int" name="NGX">    40</i>
   <i type="int" name="NGY">    40</i>
   <i type="int" name="NGZ">    40</i>
   <i type="int" name="NGXF">    80</i>
   <i type="int" name="NGYF">    80</i>
   <i type="int" name="NGZF">    80</i>
   <i type="logical" name="ADDGRID"> F  </i>
  </separator>
  <separator name="ionic" >
   <i type="int" name="NSW">    10</i>
   <i type="int" name="IBRION">     2</i>
   <i type="int" name="ISIF">     2</i>
   <i name="PSTRESS">      0.00000000</i>
   <i name="EDIFFG">      0.00100000</i>
   <i type="int" name="NFREE">     1</i>
   <i name="POTIM">      0.50000000</i>
   <i name="SMASS">     -3.00000000</i>
   <i name="SCALEE">      1.00000000</i>
  </separator>
  <separator name="ionic md" >
   <i name="TEBEG">      0.00010000</i>
   <i name="TEEND">      0.00010000</i>
   <i type="int" name="NBLOCK">     1</i>
   <i type="int" name="KBLOCK">    10</i>
   <i type="int" name="NPACO">   256</i>
   <i name="APACO">     16.00000000</i>
  </separator>
  <separator name="symmetry" >
   <i type="int" name="ISYM">     2</i>
   <i name="SYMPREC">      0.00001000</i>
  </separator>
  <separator name="dos" >
   <i type="logical" name="LORBIT"> F  </i>
   <v name="RWIGS">     -1.00000000     -1.00000000</v>
   <i type="int" name="NEDOS">   301</i>
   <i name="EMIN">     10.00000000</i>
   <i name="EMAX">    -10.00000000</i>
   <i name="EFERMI">      0.00000000</i>
  </separator>
  <separator name="writing" >
   <i type="int" name="NWRITE">     2</i>
   <i type="logical" name="LWAVE"> T  </i>
   <i type="logical" name="LCHARG"> T  </i>
   <i type="logical" name="LPARD"> F  </i>
   <i type="logical" name="LVTOT"> F  </i>
   <i type="logical" name="LVHAR"> F  </i>
   <i type="logical" name="LELF"> F  </i>
   <i type="logical" name="LOPTICS"> F  </i>
   <v name="STM">      0.00000000      0.00000000      0.00000000      0.00000000      0.00000000      0.00000000      0.00000000</v>
  </separator>
  <separator name="performance" >
   <i type="int" name="NPAR">     1</i>
   <i type="int" name="NSIM">     4</i>
   <i type="int" name="NBLK">    -1</i>
   <i type="logical" name="LPLANE"> T  </i>
   <i type="logical" name="LSCALAPACK"> F  </i>
   <i type="logical" name="LSCAAWARE"> F  </i>
   <i type="logical" name="LSCALU"> F  </i>
   <i type="logical" name="LASYNC"> F  </i>
   <i type="logical" name="LORBITALREAL"> F  </i>
  </separator>
  <separator name="miscellaneous" >
   <i type="int" name="IDIOT">     3</i>
   <i type="logical" name="LMUSIC"> F  </i>
   <v name="POMASS">      1.00000000     12.01100000</v>
   <v name="DARWINR">      0.00000000      0.00000000</v>
   <v name="DARWINV">      1.00000000      1.00000000</v>
   <i type="logical" name="LCORR"> T  </i>
  </separator>
  <i type="logical" name="GGA_COMPAT"> T  </i>
  <i type="logical" name="LBERRY"> F  </i>
  <i type="int" name="ICORELEVEL">     0</i>
  <i type="logical" name="LDAU"> F  </i>
  <i type="int" name="I_CONSTRAINED_M">     0</i>
  <separator name="electronic exchange-correlation" >
   <i type="string" name="GGA">--</i>
   <i type="int" name="VOSKOWN">     0</i>
   <i type="logical" name="LHFCALC"> F  </i>
   <i type="string" name="PRECFOCK"></i>
   <i type="logical" name="LHFONE"> F  </i>
   <i type="logical" name="LRHFCALC"> F  </i>
   <i type="logical" name="LTHOMAS"> F  </i>
   <i type="logical" name="LMODELHF"> F  </i>
   <i name="ENCUT4O">     -1.00000000</i>
   <i type="int" name="EXXOEP">     0</i>
   <i type="int" name="FOURORBIT">     0</i>
   <i name="AEXX">      0.00000000</i>
   <i name="HFALPHA">      0.00000000</i>
   <i name="ALDAX">      1.00000000</i>
   <i name="AGGAX">      1.00000000</i>
   <i name="ALDAC">      1.00000000</i>
   <i name="AGGAC">      1.00000000</i>
   <i type="int" name="NKREDX">     1</i>
   <i type="int" name="NKREDY">     1</i>
   <i type="int" name="NKREDZ">     1</i>
   <i type="logical" name="SHIFTRED"> F  </i>
   <i type="logical" name="ODDONLY"> F  </i>
   <i type="logical" name="EVENONLY"> F  </i>
   <i type="int" name="LMAXFOCK">     0</i>
   <i type="int" name="NMAXFOCKAE">     0</i>
   <i type="logical" name="LFOCKAEDFT"> F  </i>
   <i name="HFSCREEN">      0.00000000</i>
   <i name="HFSCREENC">      0.00000000</i>
  </separator>
  <separator name="vdW DFT" >
   <i type="logical" name="LUSE_VDW"> F  </i>
   <i name="Zab_VDW">     -0.84910000</i>
   <i name="PARAM1">      0.12340000</i>
   <i name="PARAM2">      1.00000000</i>
   <i name="PARAM3">      0.00000000</i>
  </separator>
  <separator name="model GW" >
   <i type="int" name="MODEL_GW">     0</i>
   <i name="MODEL_EPS0">     76.80000000</i>
   <i name="MODEL_ALPHA">      1.00000000</i>
  </separator>
  <separator name="linear response parameters" >
   <i type="logical" name="LEPSILON"> F  </i>
   <i type="logical" name="LRPA"> F  </i>
   <i type="logical" name="LNABLA"> F  </i>
   <i type="logical" name="LVEL"> F  </i>
   <i type="int" name="KINTER">     0</i>
   <i name="CSHIFT">      0.10000000</i>
   <i name="OMEGAMAX">     -1.00000000</i>
  </separator>
  <separator name="orbital magnetization" >
   <i type="logical" name="NUCIND"> F  </i>
   <v name="MAGPOS">      0.00000000      0.00000000      0.00000000</v>
   <i type="logical" name="LNICSALL"> T  </i>
   <i type="logical" name="ORBITALMAG"> F  </i>
   <i type="logical" name="LMAGBLOCH"> F  </i>
   <i type="logical" name="LCHIMAG"> F  </i>
   <i type="logical" name="LGAUGE"> T  </i>
   <i type="int" name="MAGATOM">     0</i>
   <v name="MAGDIPOL">      0.00000000      0.00000000      0.00000000</v>
   <v name="AVECCONST">      0.00000000      0.00000000      0.00000000</v>
  </separator>
  <separator name="response functions" >
   <i type="logical" name="LADDER"> F  </i>
   <i type="logical" name="LHARTREE"> T  </i>
   <i type="int" name="IBSE">     0</i>
   <i type="logical" name="LTCTE"> F  </i>
   <i type="logical" name="LTETE"> F  </i>
   <i type="logical" name="LFXCEPS"> F  </i>
   <i type="logical" name="L2ORDER"> F  </i>
   <i type="logical" name="LUSEW"> F  </i>
   <i name="ENCUTGW">     -2.00000000</i>
   <i name="ENCUTGWSOFT">     -2.00000000</i>
   <i name="ENCUTLF">     -1.00000000</i>
   <i type="int" name="LMAXMP2">    -1</i>
   <i name="SCISSOR">      0.00000000</i>
   <i type="int" name="NOMEGA">     0</i>
   <i type="int" name="NOMEGAR">     0</i>
   <i type="int" name="NBANDSGW">    -1</i>
   <i type="int" name="NBANDSO">    -1</i>
   <i type="int" name="NBANDSV">    -1</i>
   <i name="OPTEMAX">      0.00000000</i>
   <i type="int" name="NELM">     1</i>
   <i type="int" name="DIM">     3</i>
   <i type="int" name="ANTIRES">     0</i>
   <i name="OMEGAMAX">    -30.00000000</i>
   <i name="OMEGATL">   -200.00000000</i>
   <i type="int" name="OMEGAGRID">     0</i>
   <i name="CSHIFT">     -0.10000000</i>
   <i type="logical" name="SELFENERGY"> F  </i>
   <i type="logical" name="LSPECTRAL"> F  </i>
   <i type="logical" name="ODDONLYGW"> F  </i>
   <i type="logical" name="EVENONLYGW"> F  </i>
   <i type="int" name="NKREDLFX">     1</i>
   <i type="int" name="NKREDLFY">     1</i>
   <i type="int" name="NKREDLFZ">     1</i>
   <i type="int" name="MAXMEM">  1800</i>
   <i type="int" name="TELESCOPE">     0</i>
  </separator>
 </parameters>
 <atominfo>
  <atoms>       4 </atoms>
  <types>       2 </types>
  <array name="atoms" >
   <dimension dim="1">ion</dimension>
   <field type="string">element</field>
   <field type="int">atomtype</field>
   <set>
    <rc><c>H </c><c>   1</c></rc>
    <rc><c>H </c><c>   1</c></rc>
    <rc><c>C </c><c>   2</c></rc>
    <rc><c>C </c><c>   2</c></rc>
   </set>
  </array>
  <array name="atomtypes" >
   <dimension dim="1">type</dimension>
   <field type="int">atomspertype</field>
   <field type="string">element</field>
   <field>mass</field>
   <field>valence</field>
   <field type="string">pseudopotential</field>
   <set>
    <rc><c>   2</c><c>H </c><c>      1.00000000</c><c>      1.00000000</c><c> PAW_PBE H 15Jun2001                    </c></rc>
    <rc><c>   2</c><c>C </c><c>     12.01100000</c><c>      4.00000000</c><c> PAW_PBE C 08Apr2002                    </c></rc>
   </set>
  </array>
 </atominfo>
 <structure name="initialpos" >
  <crystal>
   <varray name="basis" >
    <v>       8.00000000       0.00000000       0.00000000 </v>
    <v>       0.00000000       8.00000000       0.00000000 </v>
    <v>       0.00000000       0.00000000       8.00000000 </v>
   </varray>
   <i name="volume">    512.00000000 </i>
   <varray name="rec_basis" >
    <v>       0.12500000       0.00000000       0.00000000 </v>
    <v>       0.00000000       0.12500000       0.00000000 </v>
    <v>       0.00000000       0.00000000       0.12500000 </v>
   </varray>
  </crystal>
  <varray name="positions" >
   <v>       0.00000000       0.00000000       0.79075125 </v>
   <v>       0.00000000       0.00000000       0.20924875 </v>
   <v>       0.00000000       0.00000000       0.07601000 </v>
   <v>       0.00000000       0.00000000       0.92399000 </v>
  </varray>
 </structure>
 <calculation>
  <scstep>
   <time name="dav">    0.40    0.40</time>
   <time name="total">    1.21    1.23</time>
   <energy>
    <i name="alphaZ">      0.89086884 </i>
    <i name="ewald">    102.54077057 </i>
    <i name="hartreedc">   -317.70358761 </i>
    <i name="XCdc">     30.23698627 </i>
    <i name="pawpsdc">     77.22553761 </i>
    <i name="pawaedc">    -79.54451240 </i>
    <i name="eentropy">     -0.00009538 </i>
    <i name="bandstr">   -118.50760256 </i>
    <i name="atom">    319.07750188 </i>
    <i name="e_fr_energy">     14.21586722 </i>
    <i name="e_wo_entrp">     14.21596260 </i>
    <i name="e_0_energy">     14.21591491 </i>
   </energy>
  </scstep>
  <scstep>
   <time name="dav">    0.45    0.45</time>
   <time name="total">    0.45    0.50</time>
   <energy>
    <i name="e_fr_energy">    -23.15702387 </i>
    <i name="e_wo_entrp">    -23.15702387 </i>
    <i name="e_0_energy">    -23.15702387 </i>
   </energy>
  </scstep>
  <scstep>
   <time name="dav">    0.44    0.44</time>
   <time name="total">    0.44    0.51</time>
   <energy>
    <i name="e_fr_energy">    -26.30439243 </i>
    <i name="e_wo_entrp">    -26.30439243 </i>
    <i name="e_0_energy">    -26.30439243 </i>
   </energy>
  </scstep>
  <scstep>
   <time name="dav">    0.55    0.55</time>
   <time name="total">    0.55    0.62</time>
   <energy>
    <i name="e_fr_energy">    -26.31430984 </i>
    <i name="e_wo_entrp">    -26.31430984 </i>
    <i name="e_0_energy">    -26.31430984 </i>
   </energy>
  </scstep>
  <scstep>
   <time name="dav">    0.44    0.44</time>
   <time name="total">    0.58    0.63</time>
   <energy>
    <i name="e_fr_energy">    -26.31431440 </i>
    <i name="e_wo_entrp">    -26.31431440 </i>
    <i name="e_0_energy">    -26.31431440 </i>
   </energy>
  </scstep>
  <scstep>
   <time name="dav">    0.33    0.33</time>
   <time name="total">    1.35    1.36</time>
   <energy>
    <i name="e_fr_energy">    -23.52720653 </i>
    <i name="e_wo_entrp">    -23.52720653 </i>
    <i name="e_0_energy">    -23.52720653 </i>
   </energy>
  </scstep>
  <scstep>
   <time name="dav">    0.44    0.44</time>
   <time name="total">    1.46    1.48</time>
   <energy>
    <i name="e_fr_energy">    -22.93991471 </i>
    <i name="e_wo_entrp">    -22.93991471 </i>
    <i name="e_0_energy">    -22.93991471 </i>
   </energy>
  </scstep>
  <scstep>
   <time name="dav">    0.34    0.34</time>
   <time name="total">    1.34    1.40</time>
   <energy>
    <i name="e_fr_energy">    -22.89332620 </i>
    <i name="e_wo_entrp">    -22.89332620 </i>
    <i name="e_0_energy">    -22.89332620 </i>
   </energy>
  </scstep>
  <scstep>
   <time name="dav">    0.33    0.33</time>
   <time name="total">    1.33    1.46</time>
   <energy>
    <i name="e_fr_energy">    -22.88458359 </i>
    <i name="e_wo_entrp">    -22.88458359 </i>
    <i name="e_0_energy">    -22.88458359 </i>
   </energy>
  </scstep>
  <scstep>
   <time name="dav">    0.34    0.34</time>
   <time name="total">    1.33    1.36</time>
   <energy>
    <i name="e_fr_energy">    -22.88826938 </i>
    <i name="e_wo_entrp">    -22.88826938 </i>
    <i name="e_0_energy">    -22.88826938 </i>
   </energy>
  </scstep>
  <scstep>
   <time name="dav">    0.32    0.32</time>
   <time name="total">    1.30    1.36</time>
   <energy>
    <i name="e_fr_energy">    -22.89170545 </i>
    <i name="e_wo_entrp">    -22.89170545 </i>
    <i name="e_0_energy">    -22.89170545 </i>
   </energy>
  </scstep>
  <scstep>
   <time name="dav">    0.32    0.33</time>
   <time name="total">    1.30    1.40</time>
   <energy>
    <i name="e_fr_energy">    -22.89660565 </i>
    <i name="e_wo_entrp">    -22.89660565 </i>
    <i name="e_0_energy">    -22.89660565 </i>
   </energy>
  </scstep>
  <scstep>
   <time name="dav">    0.32    0.32</time>
   <time name="total">    1.30    1.36</time>
   <energy>
    <i name="e_fr_energy">    -22.89743666 </i>
    <i name="e_wo_entrp">    -22.89743666 </i>
    <i name="e_0_energy">    -22.89743666 </i>
   </energy>
  </scstep>
  <scstep>
   <time name="dav">    0.31    0.31</time>
   <time name="total">    1.29    1.37</time>
   <energy>
    <i name="e_fr_energy">    -22.89823256 </i>
    <i name="e_wo_entrp">    -22.89823256 </i>
    <i name="e_0_energy">    -22.89823256 </i>
   </energy>
  </scstep>
  <scstep>
   <time name="dav">    0.33    0.33</time>
   <time name="total">    1.16    1.28</time>
   <energy>
    <i name="alphaZ">      0.89086884 </i>
    <i name="ewald">    102.54077057 </i>
    <i name="hartreedc">   -360.34237074 </i>
    <i name="XCdc">     32.74714842 </i>
    <i name="pawpsdc">    148.87177924 </i>
    <i name="pawaedc">   -151.47167327 </i>
    <i name="eentropy">      0.00000000 </i>
    <i name="bandstr">   -115.21230511 </i>
    <i name="atom">    319.07750188 </i>
    <i name="e_fr_energy">    -22.89828016 </i>
    <i name="e_wo_entrp">    -22.89828016 </i>
    <i name="e_0_energy">    -22.89828016 </i>
   </energy>
  </scstep>
  <parameters_embedded>
   <separator name="dft+d2" >
    <i type="logical" name="LVDW"> F  </i>
   </separator>
  </parameters_embedded>
  <structure>
   <crystal>
    <varray name="basis" >
     <v>       8.00000000       0.00000000       0.00000000 </v>
     <v>       0.00000000       8.00000000       0.00000000 </v>
     <v>       0.00000000       0.00000000       8.00000000 </v>
    </varray>
    <i name="volume">    512.00000000 </i>
    <varray name="rec_basis" >
     <v>       0.12500000       0.00000000       0.00000000 </v>
     <v>       0.00000000       0.12500000       0.00000000 </v>
     <v>       0.00000000       0.00000000       0.12500000 </v>
    </varray>
   </crystal>
   <varray name="positions" >
    <v>       0.00000000       0.00000000       0.79075125 </v>
    <v>       0.00000000       0.00000000       0.20924875 </v>
    <v>       0.00000000       0.00000000       0.07601000 </v>
    <v>       0.00000000       0.00000000       0.92399000 </v>
   </varray>
  </structure>
  <varray name="forces" >
   <v>       0.00000000       0.00000000      -0.24474592 </v>
   <v>       0.00000000       0.00000000       0.24474592 </v>
   <v>       0.00000000       0.00000000      -1.07650155 </v>
   <v>       0.00000000       0.00000000       1.07650155 </v>
  </varray>
  <varray name="stress" >
   <v>      -3.71292627       0.00000000       0.00000000 </v>
   <v>       0.00000000      -3.71292627       0.00000000 </v>
   <v>       0.00000000       0.00000000      -5.56153349 </v>
  </varray>
  <energy>
   <i name="e_fr_energy">    -22.89828016 </i>
   <i name="e_wo_entrp">    -22.89828016 </i>
   <i name="e_0_energy">      0.00000000 </i>
  </energy>
  <time name="totalsc">   19.18   20.50</time>
 </calculation>
 <calculation>
  <scstep>
   <time name="dav">    0.35    0.35</time>
   <time name="total">    1.43    1.45</time>
   <energy>
    <i name="alphaZ">      0.89086884 </i>
    <i name="ewald">    114.74209449 </i>
    <i name="hartreedc">   -367.49045604 </i>
    <i name="XCdc">     32.96553320 </i>
    <i name="pawpsdc">    148.87179500 </i>
    <i name="pawaedc">   -151.47148025 </i>
    <i name="eentropy">      0.00000000 </i>
    <i name="bandstr">   -119.92186074 </i>
    <i name="atom">    319.07750188 </i>
    <i name="e_fr_energy">    -22.33600361 </i>
    <i name="e_wo_entrp">    -22.33600361 </i>
    <i name="e_0_energy">    -22.33600361 </i>
   </energy>
  </scstep>
  <scstep>
   <time name="dav">    0.45    0.45</time>
   <time name="total">    1.55    1.60</time>
   <energy>
    <i name="e_fr_energy">    -22.24161538 </i>
    <i name="e_wo_entrp">    -22.24161538 </i>
    <i name="e_0_energy">    -22.24161538 </i>
   </energy>
  </scstep>
  <scstep>
   <time name="dav">    0.44    0.44</time>
   <time name="total">    1.45    1.55</time>
   <energy>
    <i name="e_fr_energy">    -22.22128848 </i>
    <i name="e_wo_entrp">    -22.22128848 </i>
    <i name="e_0_energy">    -22.22128848 </i>
   </energy>
  </scstep>
  <scstep>
   <time name="dav">    0.32    0.32</time>
   <time name="total">    1.35    1.36</time>
   <energy>
    <i name="e_fr_energy">    -22.21785209 </i>
    <i name="e_wo_entrp">    -22.21785209 </i>
    <i name="e_0_energy">    -22.21785209 </i>
   </energy>
  </scstep>
  <scstep>
   <time name="dav">    0.33    0.33</time>
   <time name="total">    1.35    1.37</time>
   <energy>
    <i name="e_fr_energy">    -22.21778214 </i>
    <i name="e_wo_entrp">    -22.21778214 </i>
    <i name="e_0_energy">    -22.21778214 </i>
   </energy>
  </scstep>
  <scstep>
   <time name="dav">    0.33    0.34</time>
   <time name="total">    1.22    1.65</time>
   <energy>
    <i name="alphaZ">      0.89086884 </i>
    <i name="ewald">    114.74209449 </i>
    <i name="hartreedc">   -372.29807788 </i>
    <i name="XCdc">     33.18604154 </i>
    <i name="pawpsdc">    165.98991684 </i>
    <i name="pawaedc">   -168.67917806 </i>
    <i name="eentropy">      0.00000000 </i>
    <i name="bandstr">   -115.12703435 </i>
    <i name="atom">    319.07750188 </i>
    <i name="e_fr_energy">    -22.21786670 </i>
    <i name="e_wo_entrp">    -22.21786670 </i>
    <i name="e_0_energy">    -22.21786670 </i>
   </energy>
  </scstep>
  <structure>
   <crystal>
    <varray name="basis" >
     <v>       8.00000000       0.00000000       0.00000000 </v>
     <v>       0.00000000       8.00000000       0.00000000 </v>
     <v>       0.00000000       0.00000000       8.00000000 </v>
    </varray>
    <i name="volume">    512.00000000 </i>
    <varray name="rec_basis" >
     <v>       0.12500000       0.00000000       0.00000000 </v>
     <v>       0.00000000       0.12500000       0.00000000 </v>
     <v>       0.00000000       0.00000000       0.12500000 </v>
    </varray>
   </crystal>
   <varray name="positions" >
    <v>       0.00000000       0.00000000       0.78927535 </v>
    <v>       0.00000000       0.00000000       0.21072465 </v>
    <v>       0.00000000       0.00000000       0.06951834 </v>
    <v>       0.00000000       0.00000000       0.93048166 </v>
   </varray>
  </structure>
  <varray name="forces" >
   <v>       0.00000000       0.00000000       1.91899753 </v>
   <v>       0.00000000       0.00000000      -1.91899753 </v>
   <v>       0.00000000       0.00000000      14.92926735 </v>
   <v>       0.00000000       0.00000000     -14.92926735 </v>
  </varray>
  <varray name="stress" >
   <v>      -3.46636108       0.00000000       0.00000000 </v>
   <v>       0.00000000      -3.46636108       0.00000000 </v>
   <v>       0.00000000       0.00000000      28.17120563 </v>
  </varray>
  <energy>
   <i name="e_fr_energy">    -22.21786670 </i>
   <i name="e_wo_entrp">    -22.21786670 </i>
   <i name="e_0_energy">      0.00000000 </i>
  </energy>
  <time name="totalsc">   10.18   10.83</time>
 </calculation>
 <calculation>
  <scstep>
   <time name="dav">    0.32    0.32</time>
   <time name="total">    1.35    1.35</time>
   <energy>
    <i name="alphaZ">      0.89086884 </i>
    <i name="ewald">    103.42408620 </i>
    <i name="hartreedc">   -365.55394552 </i>
    <i name="XCdc">     32.97515314 </i>
    <i name="pawpsdc">    166.28450185 </i>
    <i name="pawaedc">   -168.97563559 </i>
    <i name="eentropy">      0.00000000 </i>
    <i name="bandstr">   -111.12568323 </i>
    <i name="atom">    319.07750188 </i>
    <i name="e_fr_energy">    -23.00315242 </i>
    <i name="e_wo_entrp">    -23.00315242 </i>
    <i name="e_0_energy">    -23.00315242 </i>
   </energy>
  </scstep>
  <scstep>
   <time name="dav">    0.42    0.42</time>
   <time name="total">    1.40    1.41</time>
   <energy>
    <i name="e_fr_energy">    -22.92213425 </i>
    <i name="e_wo_entrp">    -22.92213425 </i>
    <i name="e_0_energy">    -22.92213425 </i>
   </energy>
  </scstep>
  <scstep>
   <time name="dav">    0.32    0.32</time>
   <time name="total">    1.25    1.26</time>
   <energy>
    <i name="e_fr_energy">    -22.90408385 </i>
    <i name="e_wo_entrp">    -22.90408385 </i>
    <i name="e_0_energy">    -22.90408385 </i>
   </energy>
  </scstep>
  <scstep>
   <time name="dav">    0.32    0.32</time>
   <time name="total">    1.27    1.29</time>
   <energy>
    <i name="e_fr_energy">    -22.90422811 </i>
    <i name="e_wo_entrp">    -22.90422811 </i>
    <i name="e_0_energy">    -22.90422811 </i>
   </energy>
  </scstep>
  <scstep>
   <time name="dav">    0.32    0.32</time>
   <time name="total">    1.27    1.35</time>
   <energy>
    <i name="e_fr_energy">    -22.90309041 </i>
    <i name="e_wo_entrp">    -22.90309041 </i>
    <i name="e_0_energy">    -22.90309041 </i>
   </energy>
  </scstep>
  <scstep>
   <time name="dav">    0.33    0.33</time>
   <time name="total">    1.14    2.84</time>
   <energy>
    <i name="alphaZ">      0.89086884 </i>
    <i name="ewald">    103.42408620 </i>
    <i name="hartreedc">   -361.31803309 </i>
    <i name="XCdc">     32.78044709 </i>
    <i name="pawpsdc">    150.04719573 </i>
    <i name="pawaedc">   -152.65178596 </i>
    <i name="eentropy">      0.00000000 </i>
    <i name="bandstr">   -115.15343426 </i>
    <i name="atom">    319.07750188 </i>
    <i name="e_fr_energy">    -22.90315356 </i>
    <i name="e_wo_entrp">    -22.90315356 </i>
    <i name="e_0_energy">    -22.90315356 </i>
   </energy>
  </scstep>
  <structure>
   <crystal>
    <varray name="basis" >
     <v>       8.00000000       0.00000000       0.00000000 </v>
     <v>       0.00000000       8.00000000       0.00000000 </v>
     <v>       0.00000000       0.00000000       8.00000000 </v>
    </varray>
    <i name="volume">    512.00000000 </i>
    <varray name="rec_basis" >
     <v>       0.12500000       0.00000000       0.00000000 </v>
     <v>       0.00000000       0.12500000       0.00000000 </v>
     <v>       0.00000000       0.00000000       0.12500000 </v>
    </varray>
   </crystal>
   <varray name="positions" >
    <v>       0.00000000       0.00000000       0.79062646 </v>
    <v>       0.00000000       0.00000000       0.20937354 </v>
    <v>       0.00000000       0.00000000       0.07546110 </v>
    <v>       0.00000000       0.00000000       0.92453890 </v>
   </varray>
  </structure>
  <varray name="forces" >
   <v>       0.00000000       0.00000000      -0.03128540 </v>
   <v>       0.00000000       0.00000000       0.03128540 </v>
   <v>       0.00000000       0.00000000       0.00923710 </v>
   <v>       0.00000000       0.00000000      -0.00923710 </v>
  </varray>
  <varray name="stress" >
   <v>      -3.66756334       0.00000000       0.00000000 </v>
   <v>       0.00000000      -3.66756334       0.00000000 </v>
   <v>       0.00000000       0.00000000      -3.60735626 </v>
  </varray>
  <energy>
   <i name="e_fr_energy">    -22.90315356 </i>
   <i name="e_wo_entrp">    -22.90315356 </i>
   <i name="e_0_energy">      0.00000000 </i>
  </energy>
  <time name="totalsc">    9.26   11.66</time>
  <eigenvalues>
   <array>
    <dimension dim="1">band</dimension>
    <dimension dim="2">kpoint</dimension>
    <dimension dim="3">spin</dimension>
    <field>eigene</field>
    <field>occ</field>
    <set>
     <set comment="spin 1">
      <set comment="kpoint 1">
       <r>  -18.3057    1.0000 </r>
       <r>  -13.7152    1.0000 </r>
       <r>  -11.8311    1.0000 </r>
       <r>   -6.8623    1.0000 </r>
       <r>   -6.8623    1.0000 </r>
       <r>   -0.3800    0.0000 </r>
       <r>   -0.0456    0.0000 </r>
       <r>   -0.0456    0.0000 </r>
       <r>    1.0633    0.0000 </r>
      </set>
     </set>
    </set>
   </array>
  </eigenvalues>
  <separator name="orbital magnetization" >
   <v name="MAGDIPOLOUT">      0.00000000      0.00000000      0.00000000</v>
  </separator>
  <dos>
   <i name="efermi">     -5.89468846 </i>
   <total>
    <array>
     <dimension dim="1">gridpoints</dimension>
     <dimension dim="2">spin</dimension>
     <field>energy</field>
     <field>total</field>
     <field>integrated</field>
     <set>
      <set comment="spin 1">
       <r>   -20.3057     0.0000     0.0000 </r>
       <r>   -20.2278     0.0000     0.0000 </r>
       <r>   -20.1499     0.0000     0.0000 </r>
       <r>   -20.0720     0.0000     0.0000 </r>
       <r>   -19.9941     0.0000     0.0000 </r>
       <r>   -19.9163     0.0000     0.0000 </r>
       <r>   -19.8384     0.0000     0.0000 </r>
       <r>   -19.7605     0.0000     0.0000 </r>
       <r>   -19.6826     0.0000     0.0000 </r>
       <r>   -19.6047     0.0000     0.0000 </r>
       <r>   -19.5268     0.0000     0.0000 </r>
       <r>   -19.4489     0.0000     0.0000 </r>
       <r>   -19.3710     0.0000     0.0000 </r>
       <r>   -19.2931     0.0000     0.0000 </r>
       <r>   -19.2152     0.0000     0.0000 </r>
       <r>   -19.1373     0.0000     0.0000 </r>
       <r>   -19.0594     0.0000     0.0000 </r>
       <r>   -18.9815     0.0000     0.0000 </r>
       <r>   -18.9036     0.0003     0.0000 </r>
       <r>   -18.8257     0.0027     0.0002 </r>
       <r>   -18.7478     0.0197     0.0018 </r>
       <r>   -18.6699     0.1059     0.0100 </r>
       <r>   -18.5920     0.4226     0.0429 </r>
       <r>   -18.5141     1.2541     0.1406 </r>
       <r>   -18.4362     2.7674     0.3562 </r>
       <r>   -18.3583     4.5423     0.7100 </r>
       <r>   -18.2804     5.5462     1.1421 </r>
       <r>   -18.2025     5.0379     1.5345 </r>
       <r>   -18.1246     3.4042     1.7997 </r>
       <r>   -18.0467     1.7111     1.9330 </r>
       <r>   -17.9688     0.6397     1.9828 </r>
       <r>   -17.8909     0.1778     1.9966 </r>
       <r>   -17.8130     0.0367     1.9995 </r>
       <r>   -17.7351     0.0056     1.9999 </r>
       <r>   -17.6572     0.0006     2.0000 </r>
       <r>   -17.5793     0.0001     2.0000 </r>
       <r>   -17.5015     0.0000     2.0000 </r>
       <r>   -17.4236     0.0000     2.0000 </r>
       <r>   -17.3457     0.0000     2.0000 </r>
       <r>   -17.2678     0.0000     2.0000 </r>
       <r>   -17.1899     0.0000     2.0000 </r>
       <r>   -17.1120     0.0000     2.0000 </r>
       <r>   -17.0341     0.0000     2.0000 </r>
       <r>   -16.9562     0.0000     2.0000 </r>
       <r>   -16.8783     0.0000     2.0000 </r>
       <r>   -16.8004     0.0000     2.0000 </r>
       <r>   -16.7225     0.0000     2.0000 </r>
       <r>   -16.6446     0.0000     2.0000 </r>
       <r>   -16.5667     0.0000     2.0000 </r>
       <r>   -16.4888     0.0000     2.0000 </r>
       <r>   -16.4109     0.0000     2.0000 </r>
       <r>   -16.3330     0.0000     2.0000 </r>
       <r>   -16.2551     0.0000     2.0000 </r>
       <r>   -16.1772     0.0000     2.0000 </r>
       <r>   -16.0993     0.0000     2.0000 </r>
       <r>   -16.0214     0.0000     2.0000 </r>
       <r>   -15.9435     0.0000     2.0000 </r>
       <r>   -15.8656     0.0000     2.0000 </r>
       <r>   -15.7877     0.0000     2.0000 </r>
       <r>   -15.7098     0.0000     2.0000 </r>
       <r>   -15.6319     0.0000     2.0000 </r>
       <r>   -15.5540     0.0000     2.0000 </r>
       <r>   -15.4761     0.0000     2.0000 </r>
       <r>   -15.3982     0.0000     2.0000 </r>
       <r>   -15.3203     0.0000     2.0000 </r>
       <r>   -15.2424     0.0000     2.0000 </r>
       <r>   -15.1646     0.0000     2.0000 </r>
       <r>   -15.0867     0.0000     2.0000 </r>
       <r>   -15.0088     0.0000     2.0000 </r>
       <r>   -14.9309     0.0000     2.0000 </r>
       <r>   -14.8530     0.0000     2.0000 </r>
       <r>   -14.7751     0.0000     2.0000 </r>
       <r>   -14.6972     0.0000     2.0000 </r>
       <r>   -14.6193     0.0000     2.0000 </r>
       <r>   -14.5414     0.0000     2.0000 </r>
       <r>   -14.4635     0.0000     2.0000 </r>
       <r>   -14.3856     0.0000     2.0000 </r>
       <r>   -14.3077     0.0003     2.0000 </r>
       <r>   -14.2298     0.0032     2.0003 </r>
       <r>   -14.1519     0.0224     2.0020 </r>
       <r>   -14.0740     0.1176     2.0112 </r>
       <r>   -13.9961     0.4600     2.0470 </r>
       <r>   -13.9182     1.3373     2.1512 </r>
       <r>   -13.8403     2.8912     2.3764 </r>
       <r>   -13.7624     4.6494     2.7386 </r>
       <r>   -13.6845     5.5621     3.1718 </r>
       <r>   -13.6066     4.9501     3.5574 </r>
       <r>   -13.5287     3.2773     3.8127 </r>
       <r>   -13.4508     1.6139     3.9384 </r>
       <r>   -13.3729     0.5911     3.9845 </r>
       <r>   -13.2950     0.1610     3.9970 </r>
       <r>   -13.2171     0.0326     3.9996 </r>
       <r>   -13.1392     0.0049     4.0000 </r>
       <r>   -13.0613     0.0005     4.0000 </r>
       <r>   -12.9834     0.0000     4.0000 </r>
       <r>   -12.9055     0.0000     4.0000 </r>
       <r>   -12.8276     0.0000     4.0000 </r>
       <r>   -12.7498     0.0000     4.0000 </r>
       <r>   -12.6719     0.0000     4.0000 </r>
       <r>   -12.5940     0.0000     4.0000 </r>
       <r>   -12.5161     0.0000     4.0000 </r>
       <r>   -12.4382     0.0002     4.0000 </r>
       <r>   -12.3603     0.0021     4.0002 </r>
       <r>   -12.2824     0.0159     4.0014 </r>
       <r>   -12.2045     0.0882     4.0083 </r>
       <r>   -12.1266     0.3645     4.0367 </r>
       <r>   -12.0487     1.1202     4.1239 </r>
       <r>   -11.9708     2.5598     4.3233 </r>
       <r>   -11.8929     4.3508     4.6623 </r>
       <r>   -11.8150     5.5011     5.0908 </r>
       <r>   -11.7371     5.1744     5.4938 </r>
       <r>   -11.6592     3.6207     5.7759 </r>
       <r>   -11.5813     1.8846     5.9227 </r>
       <r>   -11.5034     0.7296     5.9795 </r>
       <r>   -11.4255     0.2100     5.9959 </r>
       <r>   -11.3476     0.0449     5.9994 </r>
       <r>   -11.2697     0.0071     5.9999 </r>
       <r>   -11.1918     0.0008     6.0000 </r>
       <r>   -11.1139     0.0001     6.0000 </r>
       <r>   -11.0360     0.0000     6.0000 </r>
       <r>   -10.9581     0.0000     6.0000 </r>
       <r>   -10.8802     0.0000     6.0000 </r>
       <r>   -10.8023     0.0000     6.0000 </r>
       <r>   -10.7244     0.0000     6.0000 </r>
       <r>   -10.6465     0.0000     6.0000 </r>
       <r>   -10.5686     0.0000     6.0000 </r>
       <r>   -10.4907     0.0000     6.0000 </r>
       <r>   -10.4129     0.0000     6.0000 </r>
       <r>   -10.3350     0.0000     6.0000 </r>
       <r>   -10.2571     0.0000     6.0000 </r>
       <r>   -10.1792     0.0000     6.0000 </r>
       <r>   -10.1013     0.0000     6.0000 </r>
       <r>   -10.0234     0.0000     6.0000 </r>
       <r>    -9.9455     0.0000     6.0000 </r>
       <r>    -9.8676     0.0000     6.0000 </r>
       <r>    -9.7897     0.0000     6.0000 </r>
       <r>    -9.7118     0.0000     6.0000 </r>
       <r>    -9.6339     0.0000     6.0000 </r>
       <r>    -9.5560     0.0000     6.0000 </r>
       <r>    -9.4781     0.0000     6.0000 </r>
       <r>    -9.4002     0.0000     6.0000 </r>
       <r>    -9.3223     0.0000     6.0000 </r>
       <r>    -9.2444     0.0000     6.0000 </r>
       <r>    -9.1665     0.0000     6.0000 </r>
       <r>    -9.0886     0.0000     6.0000 </r>
       <r>    -9.0107     0.0000     6.0000 </r>
       <r>    -8.9328     0.0000     6.0000 </r>
       <r>    -8.8549     0.0000     6.0000 </r>
       <r>    -8.7770     0.0000     6.0000 </r>
       <r>    -8.6991     0.0000     6.0000 </r>
       <r>    -8.6212     0.0000     6.0000 </r>
       <r>    -8.5433     0.0000     6.0000 </r>
       <r>    -8.4654     0.0000     6.0000 </r>
       <r>    -8.3875     0.0000     6.0000 </r>
       <r>    -8.3096     0.0000     6.0000 </r>
       <r>    -8.2317     0.0000     6.0000 </r>
       <r>    -8.1538     0.0000     6.0000 </r>
       <r>    -8.0759     0.0000     6.0000 </r>
       <r>    -7.9981     0.0000     6.0000 </r>
       <r>    -7.9202     0.0000     6.0000 </r>
       <r>    -7.8423     0.0000     6.0000 </r>
       <r>    -7.7644     0.0000     6.0000 </r>
       <r>    -7.6865     0.0000     6.0000 </r>
       <r>    -7.6086     0.0000     6.0000 </r>
       <r>    -7.5307     0.0001     6.0000 </r>
       <r>    -7.4528     0.0007     6.0001 </r>
       <r>    -7.3749     0.0067     6.0006 </r>
       <r>    -7.2970     0.0469     6.0042 </r>
       <r>    -7.2191     0.2447     6.0233 </r>
       <r>    -7.1412     0.9495     6.0973 </r>
       <r>    -7.0633     2.7390     6.3106 </r>
       <r>    -6.9854     5.8763     6.7684 </r>
       <r>    -6.9075     9.3775     7.4988 </r>
       <r>    -6.8296    11.1322     8.3660 </r>
       <r>    -6.7517     9.8313     9.1318 </r>
       <r>    -6.6738     6.4589     9.6350 </r>
       <r>    -6.5959     3.1564     9.8808 </r>
       <r>    -6.5180     1.1472     9.9702 </r>
       <r>    -6.4401     0.3100     9.9943 </r>
       <r>    -6.3622     0.0623     9.9992 </r>
       <r>    -6.2843     0.0093     9.9999 </r>
       <r>    -6.2064     0.0010    10.0000 </r>
       <r>    -6.1285     0.0001    10.0000 </r>
       <r>    -6.0506     0.0000    10.0000 </r>
       <r>    -5.9727     0.0000    10.0000 </r>
       <r>    -5.8948     0.0000    10.0000 </r>
       <r>    -5.8169     0.0000    10.0000 </r>
       <r>    -5.7390     0.0000    10.0000 </r>
       <r>    -5.6612     0.0000    10.0000 </r>
       <r>    -5.5833     0.0000    10.0000 </r>
       <r>    -5.5054     0.0000    10.0000 </r>
       <r>    -5.4275     0.0000    10.0000 </r>
       <r>    -5.3496     0.0000    10.0000 </r>
       <r>    -5.2717     0.0000    10.0000 </r>
       <r>    -5.1938     0.0000    10.0000 </r>
       <r>    -5.1159     0.0000    10.0000 </r>
       <r>    -5.0380     0.0000    10.0000 </r>
       <r>    -4.9601     0.0000    10.0000 </r>
       <r>    -4.8822     0.0000    10.0000 </r>
       <r>    -4.8043     0.0000    10.0000 </r>
       <r>    -4.7264     0.0000    10.0000 </r>
       <r>    -4.6485     0.0000    10.0000 </r>
       <r>    -4.5706     0.0000    10.0000 </r>
       <r>    -4.4927     0.0000    10.0000 </r>
       <r>    -4.4148     0.0000    10.0000 </r>
       <r>    -4.3369     0.0000    10.0000 </r>
       <r>    -4.2590     0.0000    10.0000 </r>
       <r>    -4.1811     0.0000    10.0000 </r>
       <r>    -4.1032     0.0000    10.0000 </r>
       <r>    -4.0253     0.0000    10.0000 </r>
       <r>    -3.9474     0.0000    10.0000 </r>
       <r>    -3.8695     0.0000    10.0000 </r>
       <r>    -3.7916     0.0000    10.0000 </r>
       <r>    -3.7137     0.0000    10.0000 </r>
       <r>    -3.6358     0.0000    10.0000 </r>
       <r>    -3.5579     0.0000    10.0000 </r>
       <r>    -3.4800     0.0000    10.0000 </r>
       <r>    -3.4021     0.0000    10.0000 </r>
       <r>    -3.3242     0.0000    10.0000 </r>
       <r>    -3.2464     0.0000    10.0000 </r>
       <r>    -3.1685     0.0000    10.0000 </r>
       <r>    -3.0906     0.0000    10.0000 </r>
       <r>    -3.0127     0.0000    10.0000 </r>
       <r>    -2.9348     0.0000    10.0000 </r>
       <r>    -2.8569     0.0000    10.0000 </r>
       <r>    -2.7790     0.0000    10.0000 </r>
       <r>    -2.7011     0.0000    10.0000 </r>
       <r>    -2.6232     0.0000    10.0000 </r>
       <r>    -2.5453     0.0000    10.0000 </r>
       <r>    -2.4674     0.0000    10.0000 </r>
       <r>    -2.3895     0.0000    10.0000 </r>
       <r>    -2.3116     0.0000    10.0000 </r>
       <r>    -2.2337     0.0000    10.0000 </r>
       <r>    -2.1558     0.0000    10.0000 </r>
       <r>    -2.0779     0.0000    10.0000 </r>
       <r>    -2.0000     0.0000    10.0000 </r>
       <r>    -1.9221     0.0000    10.0000 </r>
       <r>    -1.8442     0.0000    10.0000 </r>
       <r>    -1.7663     0.0000    10.0000 </r>
       <r>    -1.6884     0.0000    10.0000 </r>
       <r>    -1.6105     0.0000    10.0000 </r>
       <r>    -1.5326     0.0000    10.0000 </r>
       <r>    -1.4547     0.0000    10.0000 </r>
       <r>    -1.3768     0.0000    10.0000 </r>
       <r>    -1.2989     0.0000    10.0000 </r>
       <r>    -1.2210     0.0000    10.0000 </r>
       <r>    -1.1431     0.0000    10.0000 </r>
       <r>    -1.0652     0.0000    10.0000 </r>
       <r>    -0.9873     0.0002    10.0000 </r>
       <r>    -0.9095     0.0021    10.0002 </r>
       <r>    -0.8316     0.0157    10.0014 </r>
       <r>    -0.7537     0.0877    10.0082 </r>
       <r>    -0.6758     0.3629    10.0365 </r>
       <r>    -0.5979     1.1180    10.1236 </r>
       <r>    -0.5200     2.5708    10.3238 </r>
       <r>    -0.4421     4.4534    10.6708 </r>
       <r>    -0.3642     5.9928    11.1376 </r>
       <r>    -0.2863     6.8349    11.6700 </r>
       <r>    -0.2084     7.7602    12.2745 </r>
       <r>    -0.1305     9.5585    13.0191 </r>
       <r>    -0.0526    11.3170    13.9006 </r>
       <r>     0.0253    11.0799    14.7637 </r>
       <r>     0.1032     8.3481    15.4140 </r>
       <r>     0.1811     4.7254    15.7821 </r>
       <r>     0.2590     1.9951    15.9375 </r>
       <r>     0.3369     0.6269    15.9863 </r>
       <r>     0.4148     0.1465    15.9977 </r>
       <r>     0.4927     0.0261    15.9998 </r>
       <r>     0.5706     0.0089    16.0005 </r>
       <r>     0.6485     0.0371    16.0034 </r>
       <r>     0.7264     0.1778    16.0172 </r>
       <r>     0.8043     0.6397    16.0670 </r>
       <r>     0.8822     1.7111    16.2003 </r>
       <r>     0.9601     3.4042    16.4655 </r>
       <r>     1.0380     5.0379    16.8579 </r>
       <r>     1.1159     5.5462    17.2900 </r>
       <r>     1.1938     4.5423    17.6438 </r>
       <r>     1.2717     2.7674    17.8594 </r>
       <r>     1.3496     1.2541    17.9571 </r>
       <r>     1.4275     0.4226    17.9900 </r>
       <r>     1.5053     0.1059    17.9982 </r>
       <r>     1.5832     0.0197    17.9998 </r>
       <r>     1.6611     0.0027    18.0000 </r>
       <r>     1.7390     0.0003    18.0000 </r>
       <r>     1.8169     0.0000    18.0000 </r>
       <r>     1.8948     0.0000    18.0000 </r>
       <r>     1.9727     0.0000    18.0000 </r>
       <r>     2.0506     0.0000    18.0000 </r>
       <r>     2.1285     0.0000    18.0000 </r>
       <r>     2.2064     0.0000    18.0000 </r>
       <r>     2.2843     0.0000    18.0000 </r>
       <r>     2.3622     0.0000    18.0000 </r>
       <r>     2.4401     0.0000    18.0000 </r>
       <r>     2.5180     0.0000    18.0000 </r>
       <r>     2.5959     0.0000    18.0000 </r>
       <r>     2.6738     0.0000    18.0000 </r>
       <r>     2.7517     0.0000    18.0000 </r>
       <r>     2.8296     0.0000    18.0000 </r>
       <r>     2.9075     0.0000    18.0000 </r>
       <r>     2.9854     0.0000    18.0000 </r>
       <r>     3.0633     0.0000    18.0000 </r>
      </set>
     </set>
    </array>
   </total>
  </dos>
 </calculation>
 <structure name="finalpos" >
  <crystal>
   <varray name="basis" >
    <v>       8.00000000       0.00000000       0.00000000 </v>
    <v>       0.00000000       8.00000000       0.00000000 </v>
    <v>       0.00000000       0.00000000       8.00000000 </v>
   </varray>
   <i name="volume">    512.00000000 </i>
   <varray name="rec_basis" >
    <v>       0.12500000       0.00000000       0.00000000 </v>
    <v>       0.00000000       0.12500000       0.00000000 </v>
    <v>       0.00000000       0.00000000       0.12500000 </v>
   </varray>
  </crystal>
  <varray name="positions" >
   <v>       0.00000000       0.00000000       0.79062646 </v>
   <v>       0.00000000       0.00000000       0.20937354 </v>
   <v>       0.00000000       0.00000000       0.07546110 </v>
   <v>       0.00000000       0.00000000       0.92453890 </v>
  </varray>
 </structure>
</modeling>
