   6   6   0   0
  0.8533333E+02  0.8000000E-09  0.8000000E-09  0.8000000E-09  0.5000000E-15
  1.000000000000000E-004
  CAR 
 unknown system                          
      3.33061179    -20.42415876  301     -5.45849866      1.00000000
    -20.424  0.0000E+00  0.0000E+00
    -20.345  0.0000E+00  0.0000E+00
    -20.266  0.0000E+00  0.0000E+00
    -20.187  0.0000E+00  0.0000E+00
    -20.107  0.0000E+00  0.0000E+00
    -20.028  0.0000E+00  0.0000E+00
    -19.949  0.0000E+00  0.0000E+00
    -19.870  0.0000E+00  0.0000E+00
    -19.791  0.0000E+00  0.0000E+00
    -19.712  0.0000E+00  0.0000E+00
    -19.632  0.0000E+00  0.0000E+00
    -19.553  0.1823E-14  0.1443E-15
    -19.474  0.1425E-12  0.1142E-13
    -19.395  0.8350E-11  0.6726E-12
    -19.316  0.3591E-09  0.2911E-10
    -19.236  0.1134E-07  0.9271E-09
    -19.157  0.2631E-06  0.2176E-07
    -19.078  0.4485E-05  0.3769E-06
    -18.999  0.5620E-04  0.4827E-05
    -18.920  0.5180E-03  0.4584E-04
    -18.841  0.3512E-02  0.3240E-03
    -18.761  0.1753E-01  0.1712E-02
    -18.682  0.6441E-01  0.6812E-02
    -18.603  0.1743E+00  0.2061E-01
    -18.524  0.3474E+00  0.4812E-01
    -18.445  0.5101E+00  0.8851E-01
    -18.365  0.5520E+00  0.1322E+00
    -18.286  0.4400E+00  0.1671E+00
    -18.207  0.2585E+00  0.1875E+00
    -18.128  0.1119E+00  0.1964E+00
    -18.049  0.3565E-01  0.1992E+00
    -17.969  0.8367E-02  0.1999E+00
    -17.890  0.1446E-02  0.2000E+00
    -17.811  0.1838E-03  0.2000E+00
    -17.732  0.1719E-04  0.2000E+00
    -17.653  0.1182E-05  0.2000E+00
    -17.574  0.5973E-07  0.2000E+00
    -17.494  0.2218E-08  0.2000E+00
    -17.415  0.6048E-10  0.2000E+00
    -17.336  0.1211E-11  0.2000E+00
    -17.257  0.1795E-13  0.2000E+00
    -17.178  0.0000E+00  0.2000E+00
    -17.098  0.0000E+00  0.2000E+00
    -17.019  0.0000E+00  0.2000E+00
    -16.940  0.0000E+00  0.2000E+00
    -16.861  0.0000E+00  0.2000E+00
    -16.782  0.0000E+00  0.2000E+00
    -16.703  0.0000E+00  0.2000E+00
    -16.623  0.0000E+00  0.2000E+00
    -16.544  0.0000E+00  0.2000E+00
    -16.465  0.0000E+00  0.2000E+00
    -16.386  0.0000E+00  0.2000E+00
    -16.307  0.0000E+00  0.2000E+00
    -16.227  0.0000E+00  0.2000E+00
    -16.148  0.0000E+00  0.2000E+00
    -16.069  0.0000E+00  0.2000E+00
    -15.990  0.0000E+00  0.2000E+00
    -15.911  0.0000E+00  0.2000E+00
    -15.832  0.0000E+00  0.2000E+00
    -15.752  0.0000E+00  0.2000E+00
    -15.673  0.0000E+00  0.2000E+00
    -15.594  0.0000E+00  0.2000E+00
    -15.515  0.0000E+00  0.2000E+00
    -15.436  0.0000E+00  0.2000E+00
    -15.356  0.0000E+00  0.2000E+00
    -15.277  0.0000E+00  0.2000E+00
    -15.198  0.0000E+00  0.2000E+00
    -15.119  0.0000E+00  0.2000E+00
    -15.040  0.0000E+00  0.2000E+00
    -14.961  0.3085E-14  0.2000E+00
    -14.881  0.2358E-12  0.2000E+00
    -14.802  0.1331E-10  0.2000E+00
    -14.723  0.5518E-09  0.2000E+00
    -14.644  0.1679E-07  0.2000E+00
    -14.565  0.3755E-06  0.2000E+00
    -14.485  0.6169E-05  0.2000E+00
    -14.406  0.7452E-04  0.2000E+00
    -14.327  0.6620E-03  0.2001E+00
    -14.248  0.4327E-02  0.2004E+00
    -14.169  0.2082E-01  0.2020E+00
    -14.090  0.7374E-01  0.2079E+00
    -14.010  0.1924E+00  0.2231E+00
    -13.931  0.3696E+00  0.2524E+00
    -13.852  0.5233E+00  0.2938E+00
    -13.773  0.5459E+00  0.3370E+00
    -13.694  0.4196E+00  0.3703E+00
    -13.614  0.2376E+00  0.3891E+00
    -13.535  0.9913E-01  0.3969E+00
    -13.456  0.3046E-01  0.3994E+00
    -13.377  0.6892E-02  0.3999E+00
    -13.298  0.1148E-02  0.4000E+00
    -13.219  0.1407E-03  0.4000E+00
    -13.139  0.1268E-04  0.4000E+00
    -13.060  0.8402E-06  0.4000E+00
    -12.981  0.4093E-07  0.4000E+00
    -12.902  0.1465E-08  0.4000E+00
    -12.823  0.3849E-10  0.4000E+00
    -12.743  0.7426E-12  0.4000E+00
    -12.664  0.1066E-13  0.4000E+00
    -12.585  0.0000E+00  0.4000E+00
    -12.506  0.0000E+00  0.4000E+00
    -12.427  0.0000E+00  0.4000E+00
    -12.348  0.0000E+00  0.4000E+00
    -12.268  0.0000E+00  0.4000E+00
    -12.189  0.1963E-14  0.4000E+00
    -12.110  0.1587E-12  0.4000E+00
    -12.031  0.9220E-11  0.4000E+00
    -11.952  0.3934E-09  0.4000E+00
    -11.872  0.1233E-07  0.4000E+00
    -11.793  0.2838E-06  0.4000E+00
    -11.714  0.4800E-05  0.4000E+00
    -11.635  0.5968E-04  0.4000E+00
    -11.556  0.5458E-03  0.4000E+00
    -11.477  0.3672E-02  0.4003E+00
    -11.397  0.1819E-01  0.4018E+00
    -11.318  0.6630E-01  0.4070E+00
    -11.239  0.1780E+00  0.4211E+00
    -11.160  0.3521E+00  0.4490E+00
    -11.081  0.5131E+00  0.4896E+00
    -11.001  0.5509E+00  0.5333E+00
    -10.922  0.4358E+00  0.5678E+00
    -10.843  0.2540E+00  0.5879E+00
    -10.764  0.1091E+00  0.5965E+00
    -10.685  0.3450E-01  0.5992E+00
    -10.606  0.8034E-02  0.5999E+00
    -10.526  0.1378E-02  0.6000E+00
    -10.447  0.1817E-03  0.6000E+00
    -10.368  0.1094E-03  0.6000E+00
    -10.289  0.8059E-03  0.6001E+00
    -10.210  0.5106E-02  0.6005E+00
    -10.130  0.2385E-01  0.6024E+00
    -10.051  0.8200E-01  0.6089E+00
     -9.972  0.2077E+00  0.6253E+00
     -9.893  0.3874E+00  0.6560E+00
     -9.814  0.5325E+00  0.6981E+00
     -9.735  0.5393E+00  0.7409E+00
     -9.655  0.4024E+00  0.7727E+00
     -9.576  0.2213E+00  0.7902E+00
     -9.497  0.8962E-01  0.7973E+00
     -9.418  0.2673E-01  0.7995E+00
     -9.339  0.5871E-02  0.7999E+00
     -9.259  0.9492E-03  0.8000E+00
     -9.180  0.1129E-03  0.8000E+00
     -9.101  0.9879E-05  0.8000E+00
     -9.022  0.6356E-06  0.8000E+00
     -8.943  0.3259E-07  0.8000E+00
     -8.864  0.6877E-07  0.8000E+00
     -8.784  0.1324E-05  0.8000E+00
     -8.705  0.1901E-04  0.8000E+00
     -8.626  0.2008E-03  0.8000E+00
     -8.547  0.1560E-02  0.8001E+00
     -8.468  0.8921E-02  0.8008E+00
     -8.388  0.3755E-01  0.8038E+00
     -8.309  0.1164E+00  0.8130E+00
     -8.230  0.2656E+00  0.8341E+00
     -8.151  0.4467E+00  0.8694E+00
     -8.072  0.5535E+00  0.9133E+00
     -7.992  0.5053E+00  0.9533E+00
     -7.913  0.3399E+00  0.9802E+00
     -7.834  0.1684E+00  0.9935E+00
     -7.755  0.6149E-01  0.9984E+00
     -7.676  0.1653E-01  0.9997E+00
     -7.597  0.3272E-02  0.1000E+01
     -7.517  0.4766E-03  0.1000E+01
     -7.438  0.5108E-04  0.1000E+01
     -7.359  0.4026E-05  0.1000E+01
     -7.280  0.2336E-06  0.1000E+01
     -7.201  0.2167E-07  0.1000E+01
     -7.121  0.2717E-06  0.1000E+01
     -7.042  0.4612E-05  0.1000E+01
     -6.963  0.5762E-04  0.1000E+01
     -6.884  0.5293E-03  0.1000E+01
     -6.805  0.3578E-02  0.1000E+01
     -6.726  0.1780E-01  0.1002E+01
     -6.646  0.6518E-01  0.1007E+01
     -6.567  0.1758E+00  0.1021E+01
     -6.488  0.3493E+00  0.1048E+01
     -6.409  0.5113E+00  0.1089E+01
     -6.330  0.5515E+00  0.1133E+01
     -6.250  0.4383E+00  0.1167E+01
     -6.171  0.2566E+00  0.1188E+01
     -6.092  0.1107E+00  0.1196E+01
     -6.013  0.3517E-01  0.1199E+01
     -5.934  0.8228E-02  0.1200E+01
     -5.855  0.1417E-02  0.1200E+01
     -5.775  0.1796E-03  0.1200E+01
     -5.696  0.1674E-04  0.1200E+01
     -5.617  0.1147E-05  0.1200E+01
     -5.538  0.5779E-07  0.1200E+01
     -5.459  0.2139E-08  0.1200E+01
     -5.379  0.5815E-10  0.1200E+01
     -5.300  0.1160E-11  0.1200E+01
     -5.221  0.1739E-13  0.1200E+01
     -5.142  0.0000E+00  0.1200E+01
     -5.063  0.0000E+00  0.1200E+01
     -4.984  0.0000E+00  0.1200E+01
     -4.904  0.0000E+00  0.1200E+01
     -4.825  0.0000E+00  0.1200E+01
     -4.746  0.0000E+00  0.1200E+01
     -4.667  0.0000E+00  0.1200E+01
     -4.588  0.0000E+00  0.1200E+01
     -4.508  0.0000E+00  0.1200E+01
     -4.429  0.0000E+00  0.1200E+01
     -4.350  0.0000E+00  0.1200E+01
     -4.271  0.0000E+00  0.1200E+01
     -4.192  0.0000E+00  0.1200E+01
     -4.113  0.0000E+00  0.1200E+01
     -4.033  0.0000E+00  0.1200E+01
     -3.954  0.0000E+00  0.1200E+01
     -3.875  0.0000E+00  0.1200E+01
     -3.796  0.0000E+00  0.1200E+01
     -3.717  0.0000E+00  0.1200E+01
     -3.637  0.0000E+00  0.1200E+01
     -3.558  0.0000E+00  0.1200E+01
     -3.479  0.0000E+00  0.1200E+01
     -3.400  0.0000E+00  0.1200E+01
     -3.321  0.0000E+00  0.1200E+01
     -3.242  0.0000E+00  0.1200E+01
     -3.162  0.0000E+00  0.1200E+01
     -3.083  0.0000E+00  0.1200E+01
     -3.004  0.0000E+00  0.1200E+01
     -2.925  0.0000E+00  0.1200E+01
     -2.846  0.0000E+00  0.1200E+01
     -2.766  0.0000E+00  0.1200E+01
     -2.687  0.0000E+00  0.1200E+01
     -2.608  0.0000E+00  0.1200E+01
     -2.529  0.0000E+00  0.1200E+01
     -2.450  0.0000E+00  0.1200E+01
     -2.371  0.0000E+00  0.1200E+01
     -2.291  0.0000E+00  0.1200E+01
     -2.212  0.0000E+00  0.1200E+01
     -2.133  0.0000E+00  0.1200E+01
     -2.054  0.0000E+00  0.1200E+01
     -1.975  0.0000E+00  0.1200E+01
     -1.895  0.0000E+00  0.1200E+01
     -1.816  0.2804E-15  0.1200E+01
     -1.737  0.2033E-13  0.1200E+01
     -1.658  0.1379E-11  0.1200E+01
     -1.579  0.6820E-10  0.1200E+01
     -1.500  0.2477E-08  0.1200E+01
     -1.420  0.6611E-07  0.1200E+01
     -1.341  0.1297E-05  0.1200E+01
     -1.262  0.1872E-04  0.1200E+01
     -1.183  0.1991E-03  0.1200E+01
     -1.104  0.1562E-02  0.1200E+01
     -1.024  0.9072E-02  0.1201E+01
     -0.945  0.3915E-01  0.1204E+01
     -0.866  0.1264E+00  0.1214E+01
     -0.787  0.3085E+00  0.1238E+01
     -0.708  0.5773E+00  0.1284E+01
     -0.629  0.8426E+00  0.1351E+01
     -0.549  0.9738E+00  0.1428E+01
     -0.470  0.8979E+00  0.1499E+01
     -0.391  0.6577E+00  0.1551E+01
     -0.312  0.3775E+00  0.1581E+01
     -0.233  0.1669E+00  0.1594E+01
     -0.153  0.5598E-01  0.1599E+01
     -0.074  0.1408E-01  0.1600E+01
      0.005  0.2637E-02  0.1600E+01
      0.084  0.3658E-03  0.1600E+01
      0.163  0.3747E-04  0.1600E+01
      0.242  0.2829E-05  0.1600E+01
      0.322  0.1572E-06  0.1600E+01
      0.401  0.7490E-08  0.1600E+01
      0.480  0.3157E-07  0.1600E+01
      0.559  0.6783E-06  0.1600E+01
      0.638  0.1083E-04  0.1600E+01
      0.718  0.1277E-03  0.1600E+01
      0.797  0.1116E-02  0.1600E+01
      0.876  0.7226E-02  0.1601E+01
      0.955  0.3476E-01  0.1603E+01
      1.034  0.1244E+00  0.1613E+01
      1.113  0.3316E+00  0.1640E+01
      1.193  0.6593E+00  0.1692E+01
      1.272  0.9787E+00  0.1769E+01
      1.351  0.1085E+01  0.1855E+01
      1.430  0.8992E+00  0.1926E+01
      1.509  0.5566E+00  0.1970E+01
      1.589  0.2571E+00  0.1991E+01
      1.668  0.8856E-01  0.1998E+01
      1.747  0.2272E-01  0.2000E+01
      1.826  0.4332E-02  0.2000E+01
      1.905  0.6133E-03  0.2000E+01
      1.985  0.6436E-04  0.2000E+01
      2.064  0.4998E-05  0.2000E+01
      2.143  0.2868E-06  0.2000E+01
      2.222  0.1215E-07  0.2000E+01
      2.301  0.3792E-09  0.2000E+01
      2.380  0.8717E-11  0.2000E+01
      2.460  0.1475E-12  0.2000E+01
      2.539  0.1683E-14  0.2000E+01
      2.618  0.0000E+00  0.2000E+01
      2.697  0.0000E+00  0.2000E+01
      2.776  0.0000E+00  0.2000E+01
      2.856  0.0000E+00  0.2000E+01
      2.935  0.0000E+00  0.2000E+01
      3.014  0.0000E+00  0.2000E+01
      3.093  0.0000E+00  0.2000E+01
      3.172  0.0000E+00  0.2000E+01
      3.251  0.0000E+00  0.2000E+01
      3.331  0.0000E+00  0.2000E+01
