    6    6   10    1
  0.8533333E+02  0.8000000E-09  0.8000000E-09  0.8000000E-09  0.5000000E-15
  1.000000000000000E-004
  CAR 
 unknown system                          
   12    1   10
 
  0.0000000E+00  0.0000000E+00  0.0000000E+00  0.1000000E+01
   1      -18.424159
   2      -13.841048
   3      -11.062187
   4       -9.810408
   5       -8.095292
   6       -6.389237
   7       -0.651476
   8       -0.504167
   9        1.269314
  10        1.330612
