<?xml version="1.0" encoding="ISO-8859-1"?>
<modeling>
 <generator>
  <i name="program" type="string">vasp </i>
  <i name="version" type="string">5.2.12  </i>
  <i name="subversion" type="string">11Nov11 complex                                                      parallel </i>
  <i name="platform" type="string">LinuxIFC </i>
  <i name="date" type="string">2012 11 03 </i>
  <i name="time" type="string">01:30:19 </i>
 </generator>
 <incar>
  <i type="string" name="PREC">normal</i>
  <i type="int" name="IBRION">     2</i>
  <i type="int" name="NSW">    10</i>
  <i name="ENCUT">    450.00000000</i>
  <i type="int" name="ISMEAR">     0</i>
 </incar>
 <kpoints>
  <generation param="Monkhorst-Pack">
   <v type="int" name="divisions">       1        1        1 </v>
   <v name="usershift">      0.00000000       0.00000000       0.00000000 </v>
   <v name="genvec1">      1.00000000       0.00000000       0.00000000 </v>
   <v name="genvec2">      0.00000000       1.00000000       0.00000000 </v>
   <v name="genvec3">      0.00000000       0.00000000       1.00000000 </v>
   <v name="shift">      0.00000000       0.00000000       0.00000000 </v>
  </generation>
  <varray name="kpointlist" >
   <v>       0.00000000       0.00000000       0.00000000 </v>
  </varray>
  <varray name="weights" >
   <v>       1.00000000 </v>
  </varray>
 </kpoints>
 <parameters>
  <separator name="general" >
   <i type="string" name="SYSTEM">unknown system</i>
   <i type="logical" name="LCOMPAT"> F  </i>
  </separator>
  <separator name="electronic" >
   <i type="string" name="PREC">normal</i>
   <i name="ENMAX">    450.00000000</i>
   <i name="ENAUG">    644.87300000</i>
   <i name="EDIFF">      0.00010000</i>
   <i type="int" name="IALGO">    38</i>
   <i type="int" name="IWAVPR">    11</i>
   <i type="int" name="NBANDS">    10</i>
   <i name="NELECT">     12.00000000</i>
   <i type="int" name="TURBO">     0</i>
   <i type="int" name="IRESTART">     0</i>
   <i type="int" name="NREBOOT">     0</i>
   <i type="int" name="NMIN">     0</i>
   <i name="EREF">      0.00000000</i>
   <separator name="electronic smearing" >
    <i type="int" name="ISMEAR">     0</i>
    <i name="SIGMA">      0.20000000</i>
    <i name="KSPACING">      0.50000000</i>
    <i type="logical" name="KGAMMA"> T  </i>
   </separator>
   <separator name="electronic projectors" >
    <i type="logical" name="LREAL"> F  </i>
    <v name="ROPT">      0.00000000      0.00000000</v>
    <i type="int" name="LMAXPAW">  -100</i>
    <i type="int" name="LMAXMIX">     2</i>
    <i type="logical" name="NLSPLINE"> F  </i>
   </separator>
   <separator name="electronic startup" >
    <i type="int" name="ISTART">     0</i>
    <i type="int" name="ICHARG">     2</i>
    <i type="int" name="INIWAV">     1</i>
   </separator>
   <separator name="electronic spin" >
    <i type="int" name="ISPIN">     1</i>
    <i type="logical" name="LNONCOLLINEAR"> F  </i>
    <v name="MAGMOM">      1.00000000      1.00000000      1.00000000      1.00000000      1.00000000      1.00000000</v>
    <i name="NUPDOWN">     -1.00000000</i>
    <i type="logical" name="LSORBIT"> F  </i>
    <v name="SAXIS">      0.00000000      0.00000000      1.00000000</v>
    <i type="logical" name="LSPIRAL"> F  </i>
    <v name="QSPIRAL">      0.00000000      0.00000000      0.00000000</v>
    <i type="logical" name="LZEROZ"> F  </i>
   </separator>
   <separator name="electronic exchange-correlation" >
    <i type="logical" name="LASPH"> F  </i>
    <i type="logical" name="LMETAGGA"> F  </i>
   </separator>
   <separator name="electronic convergence" >
    <i type="int" name="NELM">    60</i>
    <i type="int" name="NELMDL">    -5</i>
    <i type="int" name="NELMIN">     2</i>
    <i name="ENINI">    450.00000000</i>
    <separator name="electronic convergence detail" >
     <i type="logical" name="LDIAG"> T  </i>
     <i type="logical" name="LSUBROT"> T  </i>
     <i name="WEIMIN">      0.00100000</i>
     <i name="EBREAK">      0.00000250</i>
     <i name="DEPER">      0.30000000</i>
     <i type="int" name="NRMM">     4</i>
     <i name="TIME">      0.40000000</i>
    </separator>
   </separator>
   <separator name="electronic mixer" >
    <i name="AMIX">      0.40000000</i>
    <i name="BMIX">      1.00000000</i>
    <i name="AMIN">      0.10000000</i>
    <i name="AMIX_MAG">      1.60000000</i>
    <i name="BMIX_MAG">      1.00000000</i>
    <separator name="electronic mixer details" >
     <i type="int" name="IMIX">     4</i>
     <i type="int" name="MAXMIX">   -45</i>
     <i name="WC">    100.00000000</i>
     <i type="int" name="INIMIX">     1</i>
     <i type="int" name="MIXPRE">     1</i>
     <i type="int" name="MREMOVE">     5</i>
    </separator>
   </separator>
   <separator name="electronic dipolcorrection" >
    <i type="logical" name="LDIPOL"> F  </i>
    <i type="logical" name="LMONO"> F  </i>
    <i type="int" name="IDIPOL">     0</i>
    <i name="EPSILON">      1.00000000</i>
    <v name="DIPOL">   -100.00000000   -100.00000000   -100.00000000</v>
    <i name="EFIELD">      0.00000000</i>
   </separator>
  </separator>
  <separator name="grids" >
   <i type="int" name="NGX">    42</i>
   <i type="int" name="NGY">    42</i>
   <i type="int" name="NGZ">    42</i>
   <i type="int" name="NGXF">    84</i>
   <i type="int" name="NGYF">    84</i>
   <i type="int" name="NGZF">    84</i>
   <i type="logical" name="ADDGRID"> F  </i>
  </separator>
  <separator name="ionic" >
   <i type="int" name="NSW">    10</i>
   <i type="int" name="IBRION">     2</i>
   <i type="int" name="ISIF">     2</i>
   <i name="PSTRESS">      0.00000000</i>
   <i name="EDIFFG">      0.00100000</i>
   <i type="int" name="NFREE">     1</i>
   <i name="POTIM">      0.50000000</i>
   <i name="SMASS">     -3.00000000</i>
   <i name="SCALEE">      1.00000000</i>
  </separator>
  <separator name="ionic md" >
   <i name="TEBEG">      0.00010000</i>
   <i name="TEEND">      0.00010000</i>
   <i type="int" name="NBLOCK">     1</i>
   <i type="int" name="KBLOCK">    10</i>
   <i type="int" name="NPACO">   256</i>
   <i name="APACO">     16.00000000</i>
  </separator>
  <separator name="symmetry" >
   <i type="int" name="ISYM">     2</i>
   <i name="SYMPREC">      0.00001000</i>
  </separator>
  <separator name="dos" >
   <i type="logical" name="LORBIT"> F  </i>
   <v name="RWIGS">     -1.00000000     -1.00000000</v>
   <i type="int" name="NEDOS">   301</i>
   <i name="EMIN">     10.00000000</i>
   <i name="EMAX">    -10.00000000</i>
   <i name="EFERMI">      0.00000000</i>
  </separator>
  <separator name="writing" >
   <i type="int" name="NWRITE">     2</i>
   <i type="logical" name="LWAVE"> T  </i>
   <i type="logical" name="LCHARG"> T  </i>
   <i type="logical" name="LPARD"> F  </i>
   <i type="logical" name="LVTOT"> F  </i>
   <i type="logical" name="LVHAR"> F  </i>
   <i type="logical" name="LELF"> F  </i>
   <i type="logical" name="LOPTICS"> F  </i>
   <v name="STM">      0.00000000      0.00000000      0.00000000      0.00000000      0.00000000      0.00000000      0.00000000</v>
  </separator>
  <separator name="performance" >
   <i type="int" name="NPAR">     1</i>
   <i type="int" name="NSIM">     4</i>
   <i type="int" name="NBLK">    -1</i>
   <i type="logical" name="LPLANE"> T  </i>
   <i type="logical" name="LSCALAPACK"> F  </i>
   <i type="logical" name="LSCAAWARE"> F  </i>
   <i type="logical" name="LSCALU"> F  </i>
   <i type="logical" name="LASYNC"> F  </i>
   <i type="logical" name="LORBITALREAL"> F  </i>
  </separator>
  <separator name="miscellaneous" >
   <i type="int" name="IDIOT">     3</i>
   <i type="logical" name="LMUSIC"> F  </i>
   <v name="POMASS">      1.00000000     12.01100000</v>
   <v name="DARWINR">      0.00000000      0.00000000</v>
   <v name="DARWINV">      1.00000000      1.00000000</v>
   <i type="logical" name="LCORR"> T  </i>
  </separator>
  <i type="logical" name="GGA_COMPAT"> T  </i>
  <i type="logical" name="LBERRY"> F  </i>
  <i type="int" name="ICORELEVEL">     0</i>
  <i type="logical" name="LDAU"> F  </i>
  <i type="int" name="I_CONSTRAINED_M">     0</i>
  <separator name="electronic exchange-correlation" >
   <i type="string" name="GGA">--</i>
   <i type="int" name="VOSKOWN">     0</i>
   <i type="logical" name="LHFCALC"> F  </i>
   <i type="string" name="PRECFOCK"></i>
   <i type="logical" name="LHFONE"> F  </i>
   <i type="logical" name="LRHFCALC"> F  </i>
   <i type="logical" name="LTHOMAS"> F  </i>
   <i type="logical" name="LMODELHF"> F  </i>
   <i name="ENCUT4O">     -1.00000000</i>
   <i type="int" name="EXXOEP">     0</i>
   <i type="int" name="FOURORBIT">     0</i>
   <i name="AEXX">      0.00000000</i>
   <i name="HFALPHA">      0.00000000</i>
   <i name="ALDAX">      1.00000000</i>
   <i name="AGGAX">      1.00000000</i>
   <i name="ALDAC">      1.00000000</i>
   <i name="AGGAC">      1.00000000</i>
   <i type="int" name="NKREDX">     1</i>
   <i type="int" name="NKREDY">     1</i>
   <i type="int" name="NKREDZ">     1</i>
   <i type="logical" name="SHIFTRED"> F  </i>
   <i type="logical" name="ODDONLY"> F  </i>
   <i type="logical" name="EVENONLY"> F  </i>
   <i type="int" name="LMAXFOCK">     0</i>
   <i type="int" name="NMAXFOCKAE">     0</i>
   <i type="logical" name="LFOCKAEDFT"> F  </i>
   <i name="HFSCREEN">      0.00000000</i>
   <i name="HFSCREENC">      0.00000000</i>
  </separator>
  <separator name="vdW DFT" >
   <i type="logical" name="LUSE_VDW"> F  </i>
   <i name="Zab_VDW">     -0.84910000</i>
   <i name="PARAM1">      0.12340000</i>
   <i name="PARAM2">      1.00000000</i>
   <i name="PARAM3">      0.00000000</i>
  </separator>
  <separator name="model GW" >
   <i type="int" name="MODEL_GW">     0</i>
   <i name="MODEL_EPS0">     51.20000000</i>
   <i name="MODEL_ALPHA">      1.00000000</i>
  </separator>
  <separator name="linear response parameters" >
   <i type="logical" name="LEPSILON"> F  </i>
   <i type="logical" name="LRPA"> F  </i>
   <i type="logical" name="LNABLA"> F  </i>
   <i type="logical" name="LVEL"> F  </i>
   <i type="int" name="KINTER">     0</i>
   <i name="CSHIFT">      0.10000000</i>
   <i name="OMEGAMAX">     -1.00000000</i>
  </separator>
  <separator name="orbital magnetization" >
   <i type="logical" name="NUCIND"> F  </i>
   <v name="MAGPOS">      0.00000000      0.00000000      0.00000000</v>
   <i type="logical" name="LNICSALL"> T  </i>
   <i type="logical" name="ORBITALMAG"> F  </i>
   <i type="logical" name="LMAGBLOCH"> F  </i>
   <i type="logical" name="LCHIMAG"> F  </i>
   <i type="logical" name="LGAUGE"> T  </i>
   <i type="int" name="MAGATOM">     0</i>
   <v name="MAGDIPOL">      0.00000000      0.00000000      0.00000000</v>
   <v name="AVECCONST">      0.00000000      0.00000000      0.00000000</v>
  </separator>
  <separator name="response functions" >
   <i type="logical" name="LADDER"> F  </i>
   <i type="logical" name="LHARTREE"> T  </i>
   <i type="int" name="IBSE">     0</i>
   <i type="logical" name="LTCTE"> F  </i>
   <i type="logical" name="LTETE"> F  </i>
   <i type="logical" name="LFXCEPS"> F  </i>
   <i type="logical" name="L2ORDER"> F  </i>
   <i type="logical" name="LUSEW"> F  </i>
   <i name="ENCUTGW">     -2.00000000</i>
   <i name="ENCUTGWSOFT">     -2.00000000</i>
   <i name="ENCUTLF">     -1.00000000</i>
   <i type="int" name="LMAXMP2">    -1</i>
   <i name="SCISSOR">      0.00000000</i>
   <i type="int" name="NOMEGA">     0</i>
   <i type="int" name="NOMEGAR">     0</i>
   <i type="int" name="NBANDSGW">    -1</i>
   <i type="int" name="NBANDSO">    -1</i>
   <i type="int" name="NBANDSV">    -1</i>
   <i name="OPTEMAX">      0.00000000</i>
   <i type="int" name="NELM">     1</i>
   <i type="int" name="DIM">     3</i>
   <i type="int" name="ANTIRES">     0</i>
   <i name="OMEGAMAX">    -30.00000000</i>
   <i name="OMEGATL">   -200.00000000</i>
   <i type="int" name="OMEGAGRID">     0</i>
   <i name="CSHIFT">     -0.10000000</i>
   <i type="logical" name="SELFENERGY"> F  </i>
   <i type="logical" name="LSPECTRAL"> F  </i>
   <i type="logical" name="ODDONLYGW"> F  </i>
   <i type="logical" name="EVENONLYGW"> F  </i>
   <i type="int" name="NKREDLFX">     1</i>
   <i type="int" name="NKREDLFY">     1</i>
   <i type="int" name="NKREDLFZ">     1</i>
   <i type="int" name="MAXMEM">  1800</i>
   <i type="int" name="TELESCOPE">     0</i>
  </separator>
 </parameters>
 <atominfo>
  <atoms>       6 </atoms>
  <types>       2 </types>
  <array name="atoms" >
   <dimension dim="1">ion</dimension>
   <field type="string">element</field>
   <field type="int">atomtype</field>
   <set>
    <rc><c>H </c><c>   1</c></rc>
    <rc><c>H </c><c>   1</c></rc>
    <rc><c>H </c><c>   1</c></rc>
    <rc><c>H </c><c>   1</c></rc>
    <rc><c>C </c><c>   2</c></rc>
    <rc><c>C </c><c>   2</c></rc>
   </set>
  </array>
  <array name="atomtypes" >
   <dimension dim="1">type</dimension>
   <field type="int">atomspertype</field>
   <field type="string">element</field>
   <field>mass</field>
   <field>valence</field>
   <field type="string">pseudopotential</field>
   <set>
    <rc><c>   4</c><c>H </c><c>      1.00000000</c><c>      1.00000000</c><c> PAW_PBE H 15Jun2001                    </c></rc>
    <rc><c>   2</c><c>C </c><c>     12.01100000</c><c>      4.00000000</c><c> PAW_PBE C 08Apr2002                    </c></rc>
   </set>
  </array>
 </atominfo>
 <structure name="initialpos" >
  <crystal>
   <varray name="basis" >
    <v>       8.00000000       0.00000000       0.00000000 </v>
    <v>       0.00000000       8.00000000       0.00000000 </v>
    <v>       0.00000000       0.00000000       8.00000000 </v>
   </varray>
   <i name="volume">    512.00000000 </i>
   <varray name="rec_basis" >
    <v>       0.12500000       0.00000000       0.00000000 </v>
    <v>       0.00000000       0.12500000       0.00000000 </v>
    <v>       0.00000000       0.00000000       0.12500000 </v>
   </varray>
  </crystal>
  <varray name="positions" >
   <v>       0.00000000       0.11535400       0.15471187 </v>
   <v>       0.00000000       0.88464600       0.15471187 </v>
   <v>       0.00000000       0.11535400       0.84528813 </v>
   <v>       0.00000000       0.88464600       0.84528813 </v>
   <v>       0.00000000       0.00000000       0.08343500 </v>
   <v>       0.00000000       0.00000000       0.91656500 </v>
  </varray>
 </structure>
 <calculation>
  <scstep>
   <time name="dav">    0.49    0.49</time>
   <time name="total">    1.47    1.47</time>
   <energy>
    <i name="alphaZ">      1.18323955 </i>
    <i name="ewald">    172.18683896 </i>
    <i name="hartreedc">   -393.99545989 </i>
    <i name="XCdc">     35.70888558 </i>
    <i name="pawpsdc">     78.78818903 </i>
    <i name="pawaedc">    -81.12517927 </i>
    <i name="eentropy">      0.00000000 </i>
    <i name="bandstr">   -109.29039086 </i>
    <i name="atom">    344.22434783 </i>
    <i name="e_fr_energy">     47.68047093 </i>
    <i name="e_wo_entrp">     47.68047093 </i>
    <i name="e_0_energy">     47.68047093 </i>
   </energy>
  </scstep>
  <scstep>
   <time name="dav">    0.69    0.69</time>
   <time name="total">    0.69    0.69</time>
   <energy>
    <i name="e_fr_energy">    -21.43653279 </i>
    <i name="e_wo_entrp">    -21.43653279 </i>
    <i name="e_0_energy">    -21.43653279 </i>
   </energy>
  </scstep>
  <scstep>
   <time name="dav">    0.69    0.69</time>
   <time name="total">    0.69    0.71</time>
   <energy>
    <i name="e_fr_energy">    -35.80709434 </i>
    <i name="e_wo_entrp">    -35.80709434 </i>
    <i name="e_0_energy">    -35.80709434 </i>
   </energy>
  </scstep>
  <scstep>
   <time name="dav">    0.55    0.55</time>
   <time name="total">    0.55    0.57</time>
   <energy>
    <i name="e_fr_energy">    -36.16467258 </i>
    <i name="e_wo_entrp">    -36.16467258 </i>
    <i name="e_0_energy">    -36.16467258 </i>
   </energy>
  </scstep>
  <scstep>
   <time name="dav">    0.55    0.55</time>
   <time name="total">    0.71    0.72</time>
   <energy>
    <i name="e_fr_energy">    -36.17229451 </i>
    <i name="e_wo_entrp">    -36.17229451 </i>
    <i name="e_0_energy">    -36.17229451 </i>
   </energy>
  </scstep>
  <scstep>
   <time name="dav">    0.52    0.52</time>
   <time name="total">    1.64    1.65</time>
   <energy>
    <i name="e_fr_energy">    -32.81170320 </i>
    <i name="e_wo_entrp">    -32.81170320 </i>
    <i name="e_0_energy">    -32.81170320 </i>
   </energy>
  </scstep>
  <scstep>
   <time name="dav">    0.66    0.66</time>
   <time name="total">    1.78    1.79</time>
   <energy>
    <i name="e_fr_energy">    -32.07377912 </i>
    <i name="e_wo_entrp">    -32.07377912 </i>
    <i name="e_0_energy">    -32.07377912 </i>
   </energy>
  </scstep>
  <scstep>
   <time name="dav">    0.55    0.55</time>
   <time name="total">    1.67    1.68</time>
   <energy>
    <i name="e_fr_energy">    -31.95479351 </i>
    <i name="e_wo_entrp">    -31.95479351 </i>
    <i name="e_0_energy">    -31.95479351 </i>
   </energy>
  </scstep>
  <scstep>
   <time name="dav">    0.67    0.67</time>
   <time name="total">    1.79    1.80</time>
   <energy>
    <i name="e_fr_energy">    -31.94799530 </i>
    <i name="e_wo_entrp">    -31.94799530 </i>
    <i name="e_0_energy">    -31.94799530 </i>
   </energy>
  </scstep>
  <scstep>
   <time name="dav">    0.55    0.55</time>
   <time name="total">    1.66    1.68</time>
   <energy>
    <i name="e_fr_energy">    -31.94890719 </i>
    <i name="e_wo_entrp">    -31.94890719 </i>
    <i name="e_0_energy">    -31.94890719 </i>
   </energy>
  </scstep>
  <scstep>
   <time name="dav">    0.49    0.49</time>
   <time name="total">    1.59    1.61</time>
   <energy>
    <i name="e_fr_energy">    -31.94984180 </i>
    <i name="e_wo_entrp">    -31.94984180 </i>
    <i name="e_0_energy">    -31.94984180 </i>
   </energy>
  </scstep>
  <scstep>
   <time name="dav">    0.49    0.49</time>
   <time name="total">    1.60    1.62</time>
   <energy>
    <i name="e_fr_energy">    -31.95372823 </i>
    <i name="e_wo_entrp">    -31.95372823 </i>
    <i name="e_0_energy">    -31.95372823 </i>
   </energy>
  </scstep>
  <scstep>
   <time name="dav">    0.50    0.50</time>
   <time name="total">    1.59    1.61</time>
   <energy>
    <i name="e_fr_energy">    -31.95689520 </i>
    <i name="e_wo_entrp">    -31.95689520 </i>
    <i name="e_0_energy">    -31.95689520 </i>
   </energy>
  </scstep>
  <scstep>
   <time name="dav">    0.52    0.52</time>
   <time name="total">    1.62    1.63</time>
   <energy>
    <i name="e_fr_energy">    -31.95785338 </i>
    <i name="e_wo_entrp">    -31.95785338 </i>
    <i name="e_0_energy">    -31.95785338 </i>
   </energy>
  </scstep>
  <scstep>
   <time name="dav">    0.55    0.55</time>
   <time name="total">    1.66    1.69</time>
   <energy>
    <i name="e_fr_energy">    -31.95806337 </i>
    <i name="e_wo_entrp">    -31.95806337 </i>
    <i name="e_0_energy">    -31.95806337 </i>
   </energy>
  </scstep>
  <scstep>
   <time name="dav">    0.49    0.49</time>
   <time name="total">    1.60    1.61</time>
   <energy>
    <i name="e_fr_energy">    -31.95817011 </i>
    <i name="e_wo_entrp">    -31.95817011 </i>
    <i name="e_0_energy">    -31.95817011 </i>
   </energy>
  </scstep>
  <scstep>
   <time name="dav">    0.55    0.56</time>
   <time name="total">    1.52    1.54</time>
   <energy>
    <i name="alphaZ">      1.18323955 </i>
    <i name="ewald">    172.18683896 </i>
    <i name="hartreedc">   -450.73443290 </i>
    <i name="XCdc">     39.18146666 </i>
    <i name="pawpsdc">    158.56010977 </i>
    <i name="pawaedc">   -161.26235684 </i>
    <i name="eentropy">      0.00000000 </i>
    <i name="bandstr">   -135.29739314 </i>
    <i name="atom">    344.22434783 </i>
    <i name="e_fr_energy">    -31.95818011 </i>
    <i name="e_wo_entrp">    -31.95818011 </i>
    <i name="e_0_energy">    -31.95818011 </i>
   </energy>
  </scstep>
  <parameters_embedded>
   <separator name="dft+d2" >
    <i type="logical" name="LVDW"> F  </i>
   </separator>
  </parameters_embedded>
  <structure>
   <crystal>
    <varray name="basis" >
     <v>       8.00000000       0.00000000       0.00000000 </v>
     <v>       0.00000000       8.00000000       0.00000000 </v>
     <v>       0.00000000       0.00000000       8.00000000 </v>
    </varray>
    <i name="volume">    512.00000000 </i>
    <varray name="rec_basis" >
     <v>       0.12500000       0.00000000       0.00000000 </v>
     <v>       0.00000000       0.12500000       0.00000000 </v>
     <v>       0.00000000       0.00000000       0.12500000 </v>
    </varray>
   </crystal>
   <varray name="positions" >
    <v>       0.00000000       0.11535400       0.15471187 </v>
    <v>       0.00000000       0.88464600       0.15471187 </v>
    <v>       0.00000000       0.11535400       0.84528813 </v>
    <v>       0.00000000       0.88464600       0.84528813 </v>
    <v>       0.00000000       0.00000000       0.08343500 </v>
    <v>       0.00000000       0.00000000       0.91656500 </v>
   </varray>
  </structure>
  <varray name="forces" >
   <v>       0.00000000       0.20313048       0.11497090 </v>
   <v>       0.00000000      -0.20313048       0.11497090 </v>
   <v>       0.00000000       0.20313048      -0.11497090 </v>
   <v>       0.00000000      -0.20313048      -0.11497090 </v>
   <v>       0.00000000       0.00000000      -0.30394161 </v>
   <v>       0.00000000       0.00000000       0.30394161 </v>
  </varray>
  <varray name="stress" >
   <v>      -0.57404945       0.00000000       0.00000000 </v>
   <v>       0.00000000       1.87044978       0.00000000 </v>
   <v>       0.00000000       0.00000000      -0.12393621 </v>
  </varray>
  <energy>
   <i name="e_fr_energy">    -31.95818011 </i>
   <i name="e_wo_entrp">    -31.95818011 </i>
   <i name="e_0_energy">      0.00000000 </i>
  </energy>
  <time name="totalsc">   27.20   27.74</time>
 </calculation>
 <calculation>
  <scstep>
   <time name="dav">    0.53    0.53</time>
   <time name="total">    1.80    1.80</time>
   <energy>
    <i name="alphaZ">      1.18323955 </i>
    <i name="ewald">    172.29338780 </i>
    <i name="hartreedc">   -451.23961616 </i>
    <i name="XCdc">     39.15403339 </i>
    <i name="pawpsdc">    158.56075239 </i>
    <i name="pawaedc">   -161.26288166 </i>
    <i name="eentropy">      0.00000000 </i>
    <i name="bandstr">   -134.84441803 </i>
    <i name="atom">    344.22434783 </i>
    <i name="e_fr_energy">    -31.93115488 </i>
    <i name="e_wo_entrp">    -31.93115488 </i>
    <i name="e_0_energy">    -31.93115488 </i>
   </energy>
  </scstep>
  <scstep>
   <time name="dav">    0.57    0.57</time>
   <time name="total">    1.84    1.84</time>
   <energy>
    <i name="e_fr_energy">    -31.93078267 </i>
    <i name="e_wo_entrp">    -31.93078267 </i>
    <i name="e_0_energy">    -31.93078267 </i>
   </energy>
  </scstep>
  <scstep>
   <time name="dav">    0.54    0.54</time>
   <time name="total">    1.79    1.80</time>
   <energy>
    <i name="e_fr_energy">    -31.92950982 </i>
    <i name="e_wo_entrp">    -31.92950982 </i>
    <i name="e_0_energy">    -31.92950982 </i>
   </energy>
  </scstep>
  <scstep>
   <time name="dav">    0.61    0.61</time>
   <time name="total">    1.85    1.87</time>
   <energy>
    <i name="e_fr_energy">    -31.92943167 </i>
    <i name="e_wo_entrp">    -31.92943167 </i>
    <i name="e_0_energy">    -31.92943167 </i>
   </energy>
  </scstep>
  <scstep>
   <time name="dav">    0.61    0.61</time>
   <time name="total">    1.67    1.68</time>
   <energy>
    <i name="alphaZ">      1.18323955 </i>
    <i name="ewald">    172.29338780 </i>
    <i name="hartreedc">   -451.03103166 </i>
    <i name="XCdc">     39.12353647 </i>
    <i name="pawpsdc">    158.31347805 </i>
    <i name="pawaedc">   -161.01416955 </i>
    <i name="eentropy">      0.00000000 </i>
    <i name="bandstr">   -135.02222402 </i>
    <i name="atom">    344.22434783 </i>
    <i name="e_fr_energy">    -31.92943552 </i>
    <i name="e_wo_entrp">    -31.92943552 </i>
    <i name="e_0_energy">    -31.92943552 </i>
   </energy>
  </scstep>
  <structure>
   <crystal>
    <varray name="basis" >
     <v>       8.00000000       0.00000000       0.00000000 </v>
     <v>       0.00000000       8.00000000       0.00000000 </v>
     <v>       0.00000000       0.00000000       8.00000000 </v>
    </varray>
    <i name="volume">    512.00000000 </i>
    <varray name="rec_basis" >
     <v>       0.12500000       0.00000000       0.00000000 </v>
     <v>       0.00000000       0.12500000       0.00000000 </v>
     <v>       0.00000000       0.00000000       0.12500000 </v>
    </varray>
   </crystal>
   <varray name="positions" >
    <v>       0.00000000       0.11657894       0.15540519 </v>
    <v>       0.00000000       0.88342106       0.15540519 </v>
    <v>       0.00000000       0.11657894       0.84459481 </v>
    <v>       0.00000000       0.88342106       0.84459481 </v>
    <v>       0.00000000       0.00000000       0.08160213 </v>
    <v>       0.00000000       0.00000000       0.91839787 </v>
   </varray>
  </structure>
  <varray name="forces" >
   <v>       0.00000000      -0.28783314      -0.22338918 </v>
   <v>       0.00000000       0.28783314      -0.22338918 </v>
   <v>       0.00000000      -0.28783314       0.22338918 </v>
   <v>       0.00000000       0.28783314       0.22338918 </v>
   <v>       0.00000000       0.00000000       2.08730606 </v>
   <v>       0.00000000       0.00000000      -2.08730606 </v>
  </varray>
  <varray name="stress" >
   <v>      -0.50237093       0.00000000       0.00000000 </v>
   <v>       0.00000000      -3.74754717       0.00000000 </v>
   <v>       0.00000000       0.00000000       4.50239416 </v>
  </varray>
  <energy>
   <i name="e_fr_energy">    -31.92943552 </i>
   <i name="e_wo_entrp">    -31.92943552 </i>
   <i name="e_0_energy">      0.00000000 </i>
  </energy>
  <time name="totalsc">   11.34   11.52</time>
 </calculation>
 <calculation>
  <scstep>
   <time name="dav">    0.49    0.49</time>
   <time name="total">    1.59    1.59</time>
   <energy>
    <i name="alphaZ">      1.18323955 </i>
    <i name="ewald">    172.18586773 </i>
    <i name="hartreedc">   -450.61718866 </i>
    <i name="XCdc">     39.14456449 </i>
    <i name="pawpsdc">    158.32535817 </i>
    <i name="pawaedc">   -161.02625159 </i>
    <i name="eentropy">      0.00000000 </i>
    <i name="bandstr">   -135.38115959 </i>
    <i name="atom">    344.22434783 </i>
    <i name="e_fr_energy">    -31.96122207 </i>
    <i name="e_wo_entrp">    -31.96122207 </i>
    <i name="e_0_energy">    -31.96122207 </i>
   </energy>
  </scstep>
  <scstep>
   <time name="dav">    0.49    0.49</time>
   <time name="total">    1.60    1.62</time>
   <energy>
    <i name="e_fr_energy">    -31.96097297 </i>
    <i name="e_wo_entrp">    -31.96097297 </i>
    <i name="e_0_energy">    -31.96097297 </i>
   </energy>
  </scstep>
  <scstep>
   <time name="dav">    0.49    0.49</time>
   <time name="total">    1.61    1.62</time>
   <energy>
    <i name="e_fr_energy">    -31.96021123 </i>
    <i name="e_wo_entrp">    -31.96021123 </i>
    <i name="e_0_energy">    -31.96021123 </i>
   </energy>
  </scstep>
  <scstep>
   <time name="dav">    0.56    0.56</time>
   <time name="total">    1.52    1.53</time>
   <energy>
    <i name="alphaZ">      1.18323955 </i>
    <i name="ewald">    172.18586773 </i>
    <i name="hartreedc">   -450.77646631 </i>
    <i name="XCdc">     39.16917031 </i>
    <i name="pawpsdc">    158.45568195 </i>
    <i name="pawaedc">   -161.15733662 </i>
    <i name="eentropy">      0.00000000 </i>
    <i name="bandstr">   -135.24465986 </i>
    <i name="atom">    344.22434783 </i>
    <i name="e_fr_energy">    -31.96015542 </i>
    <i name="e_wo_entrp">    -31.96015542 </i>
    <i name="e_0_energy">    -31.96015542 </i>
   </energy>
  </scstep>
  <structure>
   <crystal>
    <varray name="basis" >
     <v>       8.00000000       0.00000000       0.00000000 </v>
     <v>       0.00000000       8.00000000       0.00000000 </v>
     <v>       0.00000000       0.00000000       8.00000000 </v>
    </varray>
    <i name="volume">    512.00000000 </i>
    <varray name="rec_basis" >
     <v>       0.12500000       0.00000000       0.00000000 </v>
     <v>       0.00000000       0.12500000       0.00000000 </v>
     <v>       0.00000000       0.00000000       0.12500000 </v>
    </varray>
   </crystal>
   <varray name="positions" >
    <v>       0.00000000       0.11559963       0.15485090 </v>
    <v>       0.00000000       0.88440037       0.15485090 </v>
    <v>       0.00000000       0.11559963       0.84514910 </v>
    <v>       0.00000000       0.88440037       0.84514910 </v>
    <v>       0.00000000       0.00000000       0.08306746 </v>
    <v>       0.00000000       0.00000000       0.91693254 </v>
   </varray>
  </structure>
  <varray name="forces" >
   <v>       0.00000000       0.10054456       0.04408532 </v>
   <v>       0.00000000      -0.10054456       0.04408532 </v>
   <v>       0.00000000       0.10054456      -0.04408532 </v>
   <v>       0.00000000      -0.10054456      -0.04408532 </v>
   <v>       0.00000000       0.00000000       0.15562044 </v>
   <v>       0.00000000       0.00000000      -0.15562044 </v>
  </varray>
  <varray name="stress" >
   <v>      -0.52206154       0.00000000       0.00000000 </v>
   <v>       0.00000000       0.75024190       0.00000000 </v>
   <v>       0.00000000       0.00000000       0.73679247 </v>
  </varray>
  <energy>
   <i name="e_fr_energy">    -31.96015542 </i>
   <i name="e_wo_entrp">    -31.96015542 </i>
   <i name="e_0_energy">      0.00000000 </i>
  </energy>
  <time name="totalsc">    8.31    8.49</time>
  <eigenvalues>
   <array>
    <dimension dim="1">band</dimension>
    <dimension dim="2">kpoint</dimension>
    <dimension dim="3">spin</dimension>
    <field>eigene</field>
    <field>occ</field>
    <set>
     <set comment="spin 1">
      <set comment="kpoint 1">
       <r>  -18.4242    1.0000 </r>
       <r>  -13.8410    1.0000 </r>
       <r>  -11.0622    1.0000 </r>
       <r>   -9.8104    1.0000 </r>
       <r>   -8.0953    1.0000 </r>
       <r>   -6.3892    1.0000 </r>
       <r>   -0.6515    0.0000 </r>
       <r>   -0.5042    0.0000 </r>
       <r>    1.2693    0.0000 </r>
       <r>    1.3306    0.0000 </r>
      </set>
     </set>
    </set>
   </array>
  </eigenvalues>
  <separator name="orbital magnetization" >
   <v name="MAGDIPOLOUT">      0.00000000      0.00000000      0.00000000</v>
  </separator>
  <dos>
   <i name="efermi">     -5.45849866 </i>
   <total>
    <array>
     <dimension dim="1">gridpoints</dimension>
     <dimension dim="2">spin</dimension>
     <field>energy</field>
     <field>total</field>
     <field>integrated</field>
     <set>
      <set comment="spin 1">
       <r>   -20.4242     0.0000     0.0000 </r>
       <r>   -20.3450     0.0000     0.0000 </r>
       <r>   -20.2658     0.0000     0.0000 </r>
       <r>   -20.1866     0.0000     0.0000 </r>
       <r>   -20.1074     0.0000     0.0000 </r>
       <r>   -20.0282     0.0000     0.0000 </r>
       <r>   -19.9491     0.0000     0.0000 </r>
       <r>   -19.8699     0.0000     0.0000 </r>
       <r>   -19.7907     0.0000     0.0000 </r>
       <r>   -19.7115     0.0000     0.0000 </r>
       <r>   -19.6323     0.0000     0.0000 </r>
       <r>   -19.5532     0.0000     0.0000 </r>
       <r>   -19.4740     0.0000     0.0000 </r>
       <r>   -19.3948     0.0000     0.0000 </r>
       <r>   -19.3156     0.0000     0.0000 </r>
       <r>   -19.2364     0.0000     0.0000 </r>
       <r>   -19.1572     0.0000     0.0000 </r>
       <r>   -19.0781     0.0000     0.0000 </r>
       <r>   -18.9989     0.0006     0.0000 </r>
       <r>   -18.9197     0.0052     0.0005 </r>
       <r>   -18.8405     0.0351     0.0032 </r>
       <r>   -18.7613     0.1753     0.0171 </r>
       <r>   -18.6821     0.6441     0.0681 </r>
       <r>   -18.6030     1.7428     0.2061 </r>
       <r>   -18.5238     3.4738     0.4812 </r>
       <r>   -18.4446     5.1012     0.8851 </r>
       <r>   -18.3654     5.5195     1.3222 </r>
       <r>   -18.2862     4.4005     1.6706 </r>
       <r>   -18.2070     2.5849     1.8753 </r>
       <r>   -18.1279     1.1186     1.9638 </r>
       <r>   -18.0487     0.3565     1.9921 </r>
       <r>   -17.9695     0.0837     1.9987 </r>
       <r>   -17.8903     0.0145     1.9998 </r>
       <r>   -17.8111     0.0018     2.0000 </r>
       <r>   -17.7320     0.0002     2.0000 </r>
       <r>   -17.6528     0.0000     2.0000 </r>
       <r>   -17.5736     0.0000     2.0000 </r>
       <r>   -17.4944     0.0000     2.0000 </r>
       <r>   -17.4152     0.0000     2.0000 </r>
       <r>   -17.3360     0.0000     2.0000 </r>
       <r>   -17.2569     0.0000     2.0000 </r>
       <r>   -17.1777     0.0000     2.0000 </r>
       <r>   -17.0985     0.0000     2.0000 </r>
       <r>   -17.0193     0.0000     2.0000 </r>
       <r>   -16.9401     0.0000     2.0000 </r>
       <r>   -16.8609     0.0000     2.0000 </r>
       <r>   -16.7818     0.0000     2.0000 </r>
       <r>   -16.7026     0.0000     2.0000 </r>
       <r>   -16.6234     0.0000     2.0000 </r>
       <r>   -16.5442     0.0000     2.0000 </r>
       <r>   -16.4650     0.0000     2.0000 </r>
       <r>   -16.3858     0.0000     2.0000 </r>
       <r>   -16.3067     0.0000     2.0000 </r>
       <r>   -16.2275     0.0000     2.0000 </r>
       <r>   -16.1483     0.0000     2.0000 </r>
       <r>   -16.0691     0.0000     2.0000 </r>
       <r>   -15.9899     0.0000     2.0000 </r>
       <r>   -15.9108     0.0000     2.0000 </r>
       <r>   -15.8316     0.0000     2.0000 </r>
       <r>   -15.7524     0.0000     2.0000 </r>
       <r>   -15.6732     0.0000     2.0000 </r>
       <r>   -15.5940     0.0000     2.0000 </r>
       <r>   -15.5148     0.0000     2.0000 </r>
       <r>   -15.4357     0.0000     2.0000 </r>
       <r>   -15.3565     0.0000     2.0000 </r>
       <r>   -15.2773     0.0000     2.0000 </r>
       <r>   -15.1981     0.0000     2.0000 </r>
       <r>   -15.1189     0.0000     2.0000 </r>
       <r>   -15.0397     0.0000     2.0000 </r>
       <r>   -14.9606     0.0000     2.0000 </r>
       <r>   -14.8814     0.0000     2.0000 </r>
       <r>   -14.8022     0.0000     2.0000 </r>
       <r>   -14.7230     0.0000     2.0000 </r>
       <r>   -14.6438     0.0000     2.0000 </r>
       <r>   -14.5646     0.0000     2.0000 </r>
       <r>   -14.4855     0.0001     2.0000 </r>
       <r>   -14.4063     0.0007     2.0001 </r>
       <r>   -14.3271     0.0066     2.0006 </r>
       <r>   -14.2479     0.0433     2.0040 </r>
       <r>   -14.1687     0.2082     2.0205 </r>
       <r>   -14.0896     0.7374     2.0789 </r>
       <r>   -14.0104     1.9235     2.2312 </r>
       <r>   -13.9312     3.6963     2.5239 </r>
       <r>   -13.8520     5.2331     2.9382 </r>
       <r>   -13.7728     5.4590     3.3705 </r>
       <r>   -13.6936     4.1960     3.7027 </r>
       <r>   -13.6145     2.3762     3.8909 </r>
       <r>   -13.5353     0.9913     3.9694 </r>
       <r>   -13.4561     0.3046     3.9935 </r>
       <r>   -13.3769     0.0689     3.9990 </r>
       <r>   -13.2977     0.0115     3.9999 </r>
       <r>   -13.2185     0.0014     4.0000 </r>
       <r>   -13.1394     0.0001     4.0000 </r>
       <r>   -13.0602     0.0000     4.0000 </r>
       <r>   -12.9810     0.0000     4.0000 </r>
       <r>   -12.9018     0.0000     4.0000 </r>
       <r>   -12.8226     0.0000     4.0000 </r>
       <r>   -12.7434     0.0000     4.0000 </r>
       <r>   -12.6643     0.0000     4.0000 </r>
       <r>   -12.5851     0.0000     4.0000 </r>
       <r>   -12.5059     0.0000     4.0000 </r>
       <r>   -12.4267     0.0000     4.0000 </r>
       <r>   -12.3475     0.0000     4.0000 </r>
       <r>   -12.2684     0.0000     4.0000 </r>
       <r>   -12.1892     0.0000     4.0000 </r>
       <r>   -12.1100     0.0000     4.0000 </r>
       <r>   -12.0308     0.0000     4.0000 </r>
       <r>   -11.9516     0.0000     4.0000 </r>
       <r>   -11.8724     0.0000     4.0000 </r>
       <r>   -11.7933     0.0000     4.0000 </r>
       <r>   -11.7141     0.0000     4.0000 </r>
       <r>   -11.6349     0.0006     4.0001 </r>
       <r>   -11.5557     0.0055     4.0005 </r>
       <r>   -11.4765     0.0367     4.0034 </r>
       <r>   -11.3973     0.1819     4.0178 </r>
       <r>   -11.3182     0.6630     4.0703 </r>
       <r>   -11.2390     1.7802     4.2113 </r>
       <r>   -11.1598     3.5210     4.4901 </r>
       <r>   -11.0806     5.1307     4.8963 </r>
       <r>   -11.0014     5.5086     5.3325 </r>
       <r>   -10.9223     4.3579     5.6776 </r>
       <r>   -10.8431     2.5401     5.8787 </r>
       <r>   -10.7639     1.0907     5.9651 </r>
       <r>   -10.6847     0.3450     5.9924 </r>
       <r>   -10.6055     0.0803     5.9988 </r>
       <r>   -10.5263     0.0138     5.9998 </r>
       <r>   -10.4472     0.0018     6.0000 </r>
       <r>   -10.3680     0.0011     6.0001 </r>
       <r>   -10.2888     0.0081     6.0007 </r>
       <r>   -10.2096     0.0511     6.0048 </r>
       <r>   -10.1304     0.2385     6.0236 </r>
       <r>   -10.0512     0.8200     6.0886 </r>
       <r>    -9.9721     2.0767     6.2530 </r>
       <r>    -9.8929     3.8743     6.5598 </r>
       <r>    -9.8137     5.3252     6.9815 </r>
       <r>    -9.7345     5.3931     7.4085 </r>
       <r>    -9.6553     4.0245     7.7272 </r>
       <r>    -9.5761     2.2127     7.9024 </r>
       <r>    -9.4970     0.8962     7.9733 </r>
       <r>    -9.4178     0.2673     7.9945 </r>
       <r>    -9.3386     0.0587     7.9992 </r>
       <r>    -9.2594     0.0095     7.9999 </r>
       <r>    -9.1802     0.0011     8.0000 </r>
       <r>    -9.1011     0.0001     8.0000 </r>
       <r>    -9.0219     0.0000     8.0000 </r>
       <r>    -8.9427     0.0000     8.0000 </r>
       <r>    -8.8635     0.0000     8.0000 </r>
       <r>    -8.7843     0.0000     8.0000 </r>
       <r>    -8.7051     0.0002     8.0000 </r>
       <r>    -8.6260     0.0020     8.0002 </r>
       <r>    -8.5468     0.0156     8.0014 </r>
       <r>    -8.4676     0.0892     8.0085 </r>
       <r>    -8.3884     0.3755     8.0382 </r>
       <r>    -8.3092     1.1636     8.1303 </r>
       <r>    -8.2300     2.6562     8.3407 </r>
       <r>    -8.1509     4.4669     8.6944 </r>
       <r>    -8.0717     5.5345     9.1326 </r>
       <r>    -7.9925     5.0528     9.5327 </r>
       <r>    -7.9133     3.3989     9.8018 </r>
       <r>    -7.8341     1.6844     9.9352 </r>
       <r>    -7.7549     0.6149     9.9839 </r>
       <r>    -7.6758     0.1653     9.9970 </r>
       <r>    -7.5966     0.0327     9.9996 </r>
       <r>    -7.5174     0.0048    10.0000 </r>
       <r>    -7.4382     0.0005    10.0000 </r>
       <r>    -7.3590     0.0000    10.0000 </r>
       <r>    -7.2799     0.0000    10.0000 </r>
       <r>    -7.2007     0.0000    10.0000 </r>
       <r>    -7.1215     0.0000    10.0000 </r>
       <r>    -7.0423     0.0000    10.0000 </r>
       <r>    -6.9631     0.0006    10.0000 </r>
       <r>    -6.8839     0.0053    10.0005 </r>
       <r>    -6.8048     0.0358    10.0033 </r>
       <r>    -6.7256     0.1780    10.0174 </r>
       <r>    -6.6464     0.6518    10.0690 </r>
       <r>    -6.5672     1.7582    10.2082 </r>
       <r>    -6.4880     3.4933    10.4848 </r>
       <r>    -6.4088     5.1135    10.8897 </r>
       <r>    -6.3297     5.5152    11.3264 </r>
       <r>    -6.2505     4.3830    11.6735 </r>
       <r>    -6.1713     2.5664    11.8767 </r>
       <r>    -6.0921     1.1070    11.9644 </r>
       <r>    -6.0129     0.3517    11.9922 </r>
       <r>    -5.9337     0.0823    11.9987 </r>
       <r>    -5.8546     0.0142    11.9998 </r>
       <r>    -5.7754     0.0018    12.0000 </r>
       <r>    -5.6962     0.0002    12.0000 </r>
       <r>    -5.6170     0.0000    12.0000 </r>
       <r>    -5.5378     0.0000    12.0000 </r>
       <r>    -5.4587     0.0000    12.0000 </r>
       <r>    -5.3795     0.0000    12.0000 </r>
       <r>    -5.3003     0.0000    12.0000 </r>
       <r>    -5.2211     0.0000    12.0000 </r>
       <r>    -5.1419     0.0000    12.0000 </r>
       <r>    -5.0627     0.0000    12.0000 </r>
       <r>    -4.9836     0.0000    12.0000 </r>
       <r>    -4.9044     0.0000    12.0000 </r>
       <r>    -4.8252     0.0000    12.0000 </r>
       <r>    -4.7460     0.0000    12.0000 </r>
       <r>    -4.6668     0.0000    12.0000 </r>
       <r>    -4.5876     0.0000    12.0000 </r>
       <r>    -4.5085     0.0000    12.0000 </r>
       <r>    -4.4293     0.0000    12.0000 </r>
       <r>    -4.3501     0.0000    12.0000 </r>
       <r>    -4.2709     0.0000    12.0000 </r>
       <r>    -4.1917     0.0000    12.0000 </r>
       <r>    -4.1125     0.0000    12.0000 </r>
       <r>    -4.0334     0.0000    12.0000 </r>
       <r>    -3.9542     0.0000    12.0000 </r>
       <r>    -3.8750     0.0000    12.0000 </r>
       <r>    -3.7958     0.0000    12.0000 </r>
       <r>    -3.7166     0.0000    12.0000 </r>
       <r>    -3.6375     0.0000    12.0000 </r>
       <r>    -3.5583     0.0000    12.0000 </r>
       <r>    -3.4791     0.0000    12.0000 </r>
       <r>    -3.3999     0.0000    12.0000 </r>
       <r>    -3.3207     0.0000    12.0000 </r>
       <r>    -3.2415     0.0000    12.0000 </r>
       <r>    -3.1624     0.0000    12.0000 </r>
       <r>    -3.0832     0.0000    12.0000 </r>
       <r>    -3.0040     0.0000    12.0000 </r>
       <r>    -2.9248     0.0000    12.0000 </r>
       <r>    -2.8456     0.0000    12.0000 </r>
       <r>    -2.7664     0.0000    12.0000 </r>
       <r>    -2.6873     0.0000    12.0000 </r>
       <r>    -2.6081     0.0000    12.0000 </r>
       <r>    -2.5289     0.0000    12.0000 </r>
       <r>    -2.4497     0.0000    12.0000 </r>
       <r>    -2.3705     0.0000    12.0000 </r>
       <r>    -2.2914     0.0000    12.0000 </r>
       <r>    -2.2122     0.0000    12.0000 </r>
       <r>    -2.1330     0.0000    12.0000 </r>
       <r>    -2.0538     0.0000    12.0000 </r>
       <r>    -1.9746     0.0000    12.0000 </r>
       <r>    -1.8954     0.0000    12.0000 </r>
       <r>    -1.8163     0.0000    12.0000 </r>
       <r>    -1.7371     0.0000    12.0000 </r>
       <r>    -1.6579     0.0000    12.0000 </r>
       <r>    -1.5787     0.0000    12.0000 </r>
       <r>    -1.4995     0.0000    12.0000 </r>
       <r>    -1.4203     0.0000    12.0000 </r>
       <r>    -1.3412     0.0000    12.0000 </r>
       <r>    -1.2620     0.0002    12.0000 </r>
       <r>    -1.1828     0.0020    12.0002 </r>
       <r>    -1.1036     0.0156    12.0014 </r>
       <r>    -1.0244     0.0907    12.0086 </r>
       <r>    -0.9452     0.3915    12.0396 </r>
       <r>    -0.8661     1.2639    12.1397 </r>
       <r>    -0.7869     3.0848    12.3839 </r>
       <r>    -0.7077     5.7730    12.8411 </r>
       <r>    -0.6285     8.4256    13.5082 </r>
       <r>    -0.5493     9.7381    14.2793 </r>
       <r>    -0.4702     8.9791    14.9903 </r>
       <r>    -0.3910     6.5770    15.5111 </r>
       <r>    -0.3118     3.7748    15.8100 </r>
       <r>    -0.2326     1.6689    15.9421 </r>
       <r>    -0.1534     0.5598    15.9864 </r>
       <r>    -0.0742     0.1408    15.9976 </r>
       <r>     0.0049     0.0264    15.9997 </r>
       <r>     0.0841     0.0037    16.0000 </r>
       <r>     0.1633     0.0004    16.0000 </r>
       <r>     0.2425     0.0000    16.0000 </r>
       <r>     0.3217     0.0000    16.0000 </r>
       <r>     0.4009     0.0000    16.0000 </r>
       <r>     0.4800     0.0000    16.0000 </r>
       <r>     0.5592     0.0000    16.0000 </r>
       <r>     0.6384     0.0001    16.0000 </r>
       <r>     0.7176     0.0013    16.0001 </r>
       <r>     0.7968     0.0112    16.0010 </r>
       <r>     0.8760     0.0723    16.0067 </r>
       <r>     0.9551     0.3476    16.0342 </r>
       <r>     1.0343     1.2439    16.1327 </r>
       <r>     1.1135     3.3158    16.3953 </r>
       <r>     1.1927     6.5927    16.9173 </r>
       <r>     1.2719     9.7865    17.6922 </r>
       <r>     1.3510    10.8528    18.5516 </r>
       <r>     1.4302     8.9924    19.2636 </r>
       <r>     1.5094     5.5655    19.7043 </r>
       <r>     1.5886     2.5711    19.9079 </r>
       <r>     1.6678     0.8856    19.9780 </r>
       <r>     1.7470     0.2272    19.9960 </r>
       <r>     1.8261     0.0433    19.9995 </r>
       <r>     1.9053     0.0061    19.9999 </r>
       <r>     1.9845     0.0006    20.0000 </r>
       <r>     2.0637     0.0000    20.0000 </r>
       <r>     2.1429     0.0000    20.0000 </r>
       <r>     2.2221     0.0000    20.0000 </r>
       <r>     2.3012     0.0000    20.0000 </r>
       <r>     2.3804     0.0000    20.0000 </r>
       <r>     2.4596     0.0000    20.0000 </r>
       <r>     2.5388     0.0000    20.0000 </r>
       <r>     2.6180     0.0000    20.0000 </r>
       <r>     2.6972     0.0000    20.0000 </r>
       <r>     2.7763     0.0000    20.0000 </r>
       <r>     2.8555     0.0000    20.0000 </r>
       <r>     2.9347     0.0000    20.0000 </r>
       <r>     3.0139     0.0000    20.0000 </r>
       <r>     3.0931     0.0000    20.0000 </r>
       <r>     3.1722     0.0000    20.0000 </r>
       <r>     3.2514     0.0000    20.0000 </r>
       <r>     3.3306     0.0000    20.0000 </r>
      </set>
     </set>
    </array>
   </total>
  </dos>
 </calculation>
 <structure name="finalpos" >
  <crystal>
   <varray name="basis" >
    <v>       8.00000000       0.00000000       0.00000000 </v>
    <v>       0.00000000       8.00000000       0.00000000 </v>
    <v>       0.00000000       0.00000000       8.00000000 </v>
   </varray>
   <i name="volume">    512.00000000 </i>
   <varray name="rec_basis" >
    <v>       0.12500000       0.00000000       0.00000000 </v>
    <v>       0.00000000       0.12500000       0.00000000 </v>
    <v>       0.00000000       0.00000000       0.12500000 </v>
   </varray>
  </crystal>
  <varray name="positions" >
   <v>       0.00000000       0.11559963       0.15485090 </v>
   <v>       0.00000000       0.88440037       0.15485090 </v>
   <v>       0.00000000       0.11559963       0.84514910 </v>
   <v>       0.00000000       0.88440037       0.84514910 </v>
   <v>       0.00000000       0.00000000       0.08306746 </v>
   <v>       0.00000000       0.00000000       0.91693254 </v>
  </varray>
 </structure>
</modeling>
