   6   6   0   0
  0.8533333E+02  0.8000000E-09  0.8000000E-09  0.8000000E-09  0.5000000E-15
  1.000000000000000E-004
  CAR 
 unknown system                          
      3.35325231    -20.40794381  301     -6.19688502      1.00000000
    -20.408  0.0000E+00  0.0000E+00
    -20.329  0.0000E+00  0.0000E+00
    -20.250  0.0000E+00  0.0000E+00
    -20.170  0.0000E+00  0.0000E+00
    -20.091  0.0000E+00  0.0000E+00
    -20.012 -0.6661E-26 -0.5276E-27
    -19.933 -0.3099E-23 -0.2460E-24
    -19.854 -0.1052E-20 -0.8357E-22
    -19.774 -0.2601E-18 -0.2069E-19
    -19.695 -0.4683E-16 -0.3729E-17
    -19.616 -0.6133E-14 -0.4895E-15
    -19.537 -0.5658E-12 -0.4530E-13
    -19.457 -0.3895E-10 -0.3130E-11
    -19.378 -0.1942E-08 -0.1570E-09
    -19.299 -0.7004E-07 -0.5704E-08
    -19.220 -0.1821E-05 -0.1499E-06
    -19.141 -0.3398E-04 -0.2842E-05
    -19.061 -0.4526E-03 -0.3869E-04
    -18.982 -0.4259E-02 -0.3760E-03
    -18.903 -0.2783E-01 -0.2581E-02
    -18.824 -0.1222E+00 -0.1226E-01
    -18.745 -0.3318E+00 -0.3854E-01
    -18.665 -0.3947E+00 -0.6980E-01
    -18.586  0.6312E+00 -0.1981E-01
    -18.507  0.3593E+01  0.2647E+00
    -18.428  0.7168E+01  0.8325E+00
    -18.349  0.8153E+01  0.1478E+01
    -18.269  0.5508E+01  0.1914E+01
    -18.190  0.1889E+01  0.2064E+01
    -18.111 -0.9371E-01  0.2057E+01
    -18.032 -0.4243E+00  0.2023E+01
    -17.953 -0.2164E+00  0.2006E+01
    -17.873 -0.6173E-01  0.2001E+01
    -17.794 -0.1147E-01  0.2000E+01
    -17.715 -0.1459E-02  0.2000E+01
    -17.636 -0.1303E-03  0.2000E+01
    -17.557 -0.8262E-05  0.2000E+01
    -17.477 -0.3751E-06  0.2000E+01
    -17.398 -0.1226E-07  0.2000E+01
    -17.319 -0.2892E-09  0.2000E+01
    -17.240 -0.4940E-11  0.2000E+01
    -17.161 -0.6168E-13  0.2000E+01
    -17.081  0.0000E+00  0.2000E+01
    -17.002  0.0000E+00  0.2000E+01
    -16.923  0.0000E+00  0.2000E+01
    -16.844  0.0000E+00  0.2000E+01
    -16.765  0.0000E+00  0.2000E+01
    -16.685  0.0000E+00  0.2000E+01
    -16.606  0.0000E+00  0.2000E+01
    -16.527  0.0000E+00  0.2000E+01
    -16.448  0.0000E+00  0.2000E+01
    -16.369  0.0000E+00  0.2000E+01
    -16.289  0.0000E+00  0.2000E+01
    -16.210  0.0000E+00  0.2000E+01
    -16.131  0.0000E+00  0.2000E+01
    -16.052  0.0000E+00  0.2000E+01
    -15.973  0.0000E+00  0.2000E+01
    -15.893  0.0000E+00  0.2000E+01
    -15.814  0.0000E+00  0.2000E+01
    -15.735  0.0000E+00  0.2000E+01
    -15.656  0.0000E+00  0.2000E+01
    -15.577  0.0000E+00  0.2000E+01
    -15.497 -0.1988E-26  0.2000E+01
    -15.418 -0.9825E-24  0.2000E+01
    -15.339 -0.3543E-21  0.2000E+01
    -15.260 -0.9309E-19  0.2000E+01
    -15.180 -0.1780E-16  0.2000E+01
    -15.101 -0.2478E-14  0.2000E+01
    -15.022 -0.2438E-12  0.2000E+01
    -14.943 -0.1780E-10  0.2000E+01
    -14.864 -0.9441E-09  0.2000E+01
    -14.784 -0.3622E-07  0.2000E+01
    -14.705 -0.1003E-05  0.2000E+01
    -14.626 -0.1994E-04  0.2000E+01
    -14.547 -0.2835E-03  0.2000E+01
    -14.468 -0.2853E-02  0.2000E+01
    -14.388 -0.2003E-01  0.1998E+01
    -14.309 -0.9526E-01  0.1991E+01
    -14.230 -0.2868E+00  0.1968E+01
    -14.151 -0.4288E+00  0.1934E+01
    -14.072  0.2943E+00  0.1957E+01
    -13.992  0.2897E+01  0.2187E+01
    -13.913  0.6589E+01  0.2709E+01
    -13.834  0.8275E+01  0.3364E+01
    -13.755  0.6199E+01  0.3855E+01
    -13.676  0.2499E+01  0.4053E+01
    -13.596  0.1268E+00  0.4063E+01
    -13.517 -0.4343E+00  0.4028E+01
    -13.438 -0.2596E+00  0.4008E+01
    -13.359 -0.8127E-01  0.4001E+01
    -13.280 -0.1630E-01  0.4000E+01
    -13.200 -0.2224E-02  0.4000E+01
    -13.121 -0.2122E-03  0.4000E+01
    -13.042 -0.1436E-04  0.4000E+01
    -12.963 -0.6945E-06  0.4000E+01
    -12.884 -0.2416E-07  0.4000E+01
    -12.804 -0.6064E-09  0.4000E+01
    -12.725 -0.1102E-10  0.4000E+01
    -12.646 -0.1458E-12  0.4000E+01
    -12.567 -0.3655E-22  0.4000E+01
    -12.488 -0.1087E-19  0.4000E+01
    -12.408 -0.2356E-17  0.4000E+01
    -12.329 -0.3714E-15  0.4000E+01
    -12.250 -0.4120E-13  0.4000E+01
    -12.171 -0.3434E-11  0.4000E+01
    -12.092 -0.2067E-09  0.4000E+01
    -12.012 -0.9007E-08  0.4000E+01
    -11.933 -0.2835E-06  0.4000E+01
    -11.854 -0.6423E-05  0.4000E+01
    -11.775 -0.1042E-03  0.4000E+01
    -11.696 -0.1203E-02  0.4000E+01
    -11.616 -0.9750E-02  0.3999E+01
    -11.537 -0.5429E-01  0.3995E+01
    -11.458 -0.1981E+00  0.3979E+01
    -11.379 -0.4138E+00  0.3946E+01
    -11.299 -0.1715E+00  0.3933E+01
    -11.220  0.1637E+01  0.4062E+01
    -11.141  0.5185E+01  0.4473E+01
    -11.062  0.8050E+01  0.5111E+01
    -10.983  0.7396E+01  0.5697E+01
    -10.903  0.3916E+01  0.6007E+01
    -10.824  0.8075E+00  0.6071E+01
    -10.745 -0.3673E+00  0.6042E+01
    -10.666 -0.3512E+00  0.6014E+01
    -10.587 -0.1359E+00  0.6003E+01
    -10.507 -0.3218E-01  0.6000E+01
    -10.428 -0.5876E-02  0.6000E+01
    -10.349 -0.7473E-02  0.5999E+01
    -10.270 -0.4130E-01  0.5996E+01
    -10.191 -0.1631E+00  0.5983E+01
    -10.111 -0.3837E+00  0.5953E+01
    -10.032 -0.2952E+00  0.5929E+01
     -9.953  0.1166E+01  0.6022E+01
     -9.874  0.4508E+01  0.6379E+01
     -9.795  0.7750E+01  0.6993E+01
     -9.715  0.7794E+01  0.7610E+01
     -9.636  0.4593E+01  0.7974E+01
     -9.557  0.1221E+01  0.8070E+01
     -9.478 -0.2822E+00  0.8048E+01
     -9.399 -0.3880E+00  0.8017E+01
     -9.319 -0.1673E+00  0.8004E+01
     -9.240 -0.4273E-01  0.8001E+01
     -9.161 -0.7226E-02  0.8000E+01
     -9.082 -0.8432E-03  0.8000E+01
     -9.003 -0.6947E-04  0.8000E+01
     -8.923 -0.8696E-05  0.8000E+01
     -8.844 -0.7836E-04  0.8000E+01
     -8.765 -0.9370E-03  0.8000E+01
     -8.686 -0.7899E-02  0.7999E+01
     -8.607 -0.4590E-01  0.7996E+01
     -8.527 -0.1761E+00  0.7982E+01
     -8.448 -0.3963E+00  0.7950E+01
     -8.369 -0.2534E+00  0.7930E+01
     -8.290  0.1339E+01  0.8036E+01
     -8.211  0.4768E+01  0.8414E+01
     -8.131  0.7878E+01  0.9038E+01
     -8.052  0.7654E+01  0.9644E+01
     -7.973  0.4333E+01  0.9987E+01
     -7.894  0.1055E+01  0.1007E+02
     -7.815 -0.3197E+00  0.1005E+02
     -7.735 -0.3746E+00  0.1002E+02
     -7.656 -0.1548E+00  0.1000E+02
     -7.577 -0.3836E-01  0.1000E+02
     -7.498 -0.6320E-02  0.1000E+02
     -7.418 -0.7199E-03  0.1000E+02
     -7.339 -0.5778E-04  0.1000E+02
     -7.260 -0.3364E-05  0.1000E+02
     -7.181 -0.1712E-05  0.1000E+02
     -7.102 -0.2989E-04  0.1000E+02
     -7.022 -0.4044E-03  0.1000E+02
     -6.943 -0.3868E-02  0.1000E+02
     -6.864 -0.2573E-01  0.9998E+01
     -6.785 -0.1152E+00  0.9988E+01
     -6.706 -0.3210E+00  0.9963E+01
     -6.626 -0.4062E+00  0.9931E+01
     -6.547  0.5422E+00  0.9974E+01
     -6.468  0.3420E+01  0.1024E+02
     -6.389  0.7036E+01  0.1080E+02
     -6.310  0.8196E+01  0.1145E+02
     -6.230  0.5680E+01  0.1190E+02
     -6.151  0.2031E+01  0.1206E+02
     -6.072 -0.4624E-01  0.1206E+02
     -5.993 -0.4286E+00  0.1202E+02
     -5.914 -0.2266E+00  0.1201E+02
     -5.834 -0.6609E-01  0.1200E+02
     -5.755 -0.1251E-01  0.1200E+02
     -5.676 -0.1619E-02  0.1200E+02
     -5.597 -0.1468E-03  0.1200E+02
     -5.518 -0.9460E-05  0.1200E+02
     -5.438 -0.4362E-06  0.1200E+02
     -5.359 -0.1447E-07  0.1200E+02
     -5.280 -0.3466E-09  0.1200E+02
     -5.201 -0.6005E-11  0.1200E+02
     -5.122 -0.7850E-13  0.1200E+02
     -5.042  0.0000E+00  0.1200E+02
     -4.963  0.0000E+00  0.1200E+02
     -4.884  0.0000E+00  0.1200E+02
     -4.805  0.0000E+00  0.1200E+02
     -4.726  0.0000E+00  0.1200E+02
     -4.646  0.0000E+00  0.1200E+02
     -4.567  0.0000E+00  0.1200E+02
     -4.488  0.0000E+00  0.1200E+02
     -4.409  0.0000E+00  0.1200E+02
     -4.330  0.0000E+00  0.1200E+02
     -4.250  0.0000E+00  0.1200E+02
     -4.171  0.0000E+00  0.1200E+02
     -4.092  0.0000E+00  0.1200E+02
     -4.013  0.0000E+00  0.1200E+02
     -3.934  0.0000E+00  0.1200E+02
     -3.854  0.0000E+00  0.1200E+02
     -3.775  0.0000E+00  0.1200E+02
     -3.696  0.0000E+00  0.1200E+02
     -3.617  0.0000E+00  0.1200E+02
     -3.537  0.0000E+00  0.1200E+02
     -3.458  0.0000E+00  0.1200E+02
     -3.379  0.0000E+00  0.1200E+02
     -3.300  0.0000E+00  0.1200E+02
     -3.221  0.0000E+00  0.1200E+02
     -3.141  0.0000E+00  0.1200E+02
     -3.062  0.0000E+00  0.1200E+02
     -2.983  0.0000E+00  0.1200E+02
     -2.904  0.0000E+00  0.1200E+02
     -2.825  0.0000E+00  0.1200E+02
     -2.745  0.0000E+00  0.1200E+02
     -2.666  0.0000E+00  0.1200E+02
     -2.587  0.0000E+00  0.1200E+02
     -2.508  0.0000E+00  0.1200E+02
     -2.429  0.0000E+00  0.1200E+02
     -2.349 -0.2997E-28  0.1200E+02
     -2.270 -0.1819E-25  0.1200E+02
     -2.191 -0.8056E-23  0.1200E+02
     -2.112 -0.2600E-20  0.1200E+02
     -2.033 -0.6109E-18  0.1200E+02
     -1.953 -0.1045E-15  0.1200E+02
     -1.874 -0.1301E-13  0.1200E+02
     -1.795 -0.1139E-11  0.1200E+02
     -1.716 -0.7449E-10  0.1200E+02
     -1.637 -0.3527E-08  0.1200E+02
     -1.557 -0.1207E-06  0.1200E+02
     -1.478 -0.2977E-05  0.1200E+02
     -1.399 -0.5269E-04  0.1200E+02
     -1.320 -0.6647E-03  0.1200E+02
     -1.241 -0.5918E-02  0.1200E+02
     -1.161 -0.3654E-01  0.1200E+02
     -1.082 -0.1513E+00  0.1198E+02
     -1.003 -0.3861E+00  0.1195E+02
     -0.924 -0.4263E+00  0.1192E+02
     -0.845  0.6972E+00  0.1198E+02
     -0.765  0.3769E+01  0.1227E+02
     -0.686  0.7808E+01  0.1289E+02
     -0.607  0.1069E+02  0.1374E+02
     -0.528  0.1135E+02  0.1464E+02
     -0.449  0.9711E+01  0.1541E+02
     -0.369  0.6113E+01  0.1589E+02
     -0.290  0.2238E+01  0.1607E+02
     -0.211  0.1210E-02  0.1607E+02
     -0.132 -0.4819E+00  0.1603E+02
     -0.053 -0.2778E+00  0.1601E+02
      0.027 -0.8713E-01  0.1600E+02
      0.106 -0.1765E-01  0.1600E+02
      0.185 -0.2440E-02  0.1600E+02
      0.264 -0.2359E-03  0.1600E+02
      0.344 -0.1618E-04  0.1600E+02
      0.423 -0.9981E-06  0.1600E+02
      0.502 -0.4938E-05  0.1600E+02
      0.581 -0.8482E-04  0.1600E+02
      0.660 -0.1050E-02  0.1600E+02
      0.740 -0.9237E-02  0.1600E+02
      0.819 -0.5680E-01  0.1599E+02
      0.898 -0.2362E+00  0.1598E+02
      0.977 -0.6113E+00  0.1593E+02
      1.056 -0.6830E+00  0.1587E+02
      1.136  0.1224E+01  0.1597E+02
      1.215  0.6626E+01  0.1650E+02
      1.294  0.1337E+02  0.1755E+02
      1.373  0.1582E+02  0.1881E+02
      1.452  0.1153E+02  0.1972E+02
      1.532  0.4667E+01  0.2009E+02
      1.611  0.3156E+00  0.2012E+02
      1.690 -0.7710E+00  0.2005E+02
      1.769 -0.4880E+00  0.2002E+02
      1.848 -0.1611E+00  0.2000E+02
      1.928 -0.3426E-01  0.2000E+02
      2.007 -0.4992E-02  0.2000E+02
      2.086 -0.5116E-03  0.2000E+02
      2.165 -0.3737E-04  0.2000E+02
      2.244 -0.1960E-05  0.2000E+02
      2.324 -0.7416E-07  0.2000E+02
      2.403 -0.2031E-08  0.2000E+02
      2.482 -0.4032E-10  0.2000E+02
      2.561 -0.5831E-12  0.2000E+02
      2.640 -0.5607E-14  0.2000E+02
      2.720  0.0000E+00  0.2000E+02
      2.799  0.0000E+00  0.2000E+02
      2.878  0.0000E+00  0.2000E+02
      2.957  0.0000E+00  0.2000E+02
      3.036  0.0000E+00  0.2000E+02
      3.116  0.0000E+00  0.2000E+02
      3.195  0.0000E+00  0.2000E+02
      3.274  0.0000E+00  0.2000E+02
      3.353  0.0000E+00  0.2000E+02
