    6    6    1    1
  0.8533333E+02  0.8000000E-09  0.8000000E-09  0.8000000E-09  0.5000000E-15
  1.000000000000000E-004
  CAR 
 unknown system                          
   12    1   10
 
  0.0000000E+00  0.0000000E+00  0.0000000E+00  0.1000000E+01
   1      -18.407944
   2      -13.878194
   3      -11.074991
   4       -9.793732
   5       -8.135806
   6       -6.365261
   7       -0.678947
   8       -0.489420
   9        1.290098
  10        1.353252
