       N       E                     dE             d eps       ncg     rms          rms(c)
DAV:   1     0.921209328644E+02    0.92121E+02   -0.30379E+03    20   0.575E+02
DAV:   2    -0.971238567538E+01   -0.10183E+03   -0.98635E+02    30   0.139E+02
DAV:   3    -0.354362009565E+02   -0.25724E+02   -0.25710E+02    30   0.951E+01
DAV:   4    -0.361253766694E+02   -0.68918E+00   -0.68909E+00    24   0.176E+01
DAV:   5    -0.361387681397E+02   -0.13391E-01   -0.13391E-01    32   0.255E+00    0.941E+00
DAV:   6    -0.327974985741E+02    0.33413E+01   -0.61623E+00    22   0.163E+01    0.441E+00
DAV:   7    -0.320611682698E+02    0.73633E+00   -0.23323E+00    30   0.932E+00    0.189E+00
DAV:   8    -0.319419780802E+02    0.11919E+00   -0.28764E-01    24   0.414E+00    0.490E-01
DAV:   9    -0.319358247098E+02    0.61534E-02   -0.16365E-02    22   0.901E-01    0.317E-01
DAV:  10    -0.319368539063E+02   -0.10292E-02   -0.58486E-02    20   0.143E+00    0.212E-01
DAV:  11    -0.319376073002E+02   -0.75339E-03   -0.27260E-03    22   0.410E-01    0.140E-01
DAV:  12    -0.319420195329E+02   -0.44122E-02   -0.22127E-03    20   0.350E-01    0.513E-02
DAV:  13    -0.319448897267E+02   -0.28702E-02   -0.20022E-03    20   0.275E-01    0.483E-02
DAV:  14    -0.319458616259E+02   -0.97190E-03   -0.32034E-04    22   0.119E-01    0.220E-02
DAV:  15    -0.319460406838E+02   -0.17906E-03   -0.19623E-04    24   0.926E-02    0.115E-02
DAV:  16    -0.319461578915E+02   -0.11721E-03   -0.37325E-05    20   0.375E-02    0.313E-03
DAV:  17    -0.319461689439E+02   -0.11052E-04   -0.13322E-06    22   0.948E-03
   1 F= -.31946169E+02 E0= -.31950034E+02  d E =0.115958E-01
