<?xml version="1.0" encoding="ISO-8859-1"?>
<modeling>
 <generator>
  <i name="program" type="string">vasp </i>
  <i name="version" type="string">5.2.12  </i>
  <i name="subversion" type="string">11Nov11 complex                                                      parallel </i>
  <i name="platform" type="string">LinuxIFC </i>
  <i name="date" type="string">2012 11 03 </i>
  <i name="time" type="string">01:35:14 </i>
 </generator>
 <incar>
  <i type="string" name="PREC">normal</i>
  <i name="ENCUT">    400.00000000</i>
 </incar>
 <kpoints>
  <generation param="Monkhorst-Pack">
   <v type="int" name="divisions">       1        1        1 </v>
   <v name="usershift">      0.00000000       0.00000000       0.00000000 </v>
   <v name="genvec1">      1.00000000       0.00000000       0.00000000 </v>
   <v name="genvec2">      0.00000000       1.00000000       0.00000000 </v>
   <v name="genvec3">      0.00000000       0.00000000       1.00000000 </v>
   <v name="shift">      0.00000000       0.00000000       0.00000000 </v>
  </generation>
  <varray name="kpointlist" >
   <v>       0.00000000       0.00000000       0.00000000 </v>
  </varray>
  <varray name="weights" >
   <v>       1.00000000 </v>
  </varray>
 </kpoints>
 <parameters>
  <separator name="general" >
   <i type="string" name="SYSTEM">unknown system</i>
   <i type="logical" name="LCOMPAT"> F  </i>
  </separator>
  <separator name="electronic" >
   <i type="string" name="PREC">normal</i>
   <i name="ENMAX">    400.00000000</i>
   <i name="ENAUG">    644.87300000</i>
   <i name="EDIFF">      0.00010000</i>
   <i type="int" name="IALGO">    38</i>
   <i type="int" name="IWAVPR">    10</i>
   <i type="int" name="NBANDS">    10</i>
   <i name="NELECT">     12.00000000</i>
   <i type="int" name="TURBO">     0</i>
   <i type="int" name="IRESTART">     0</i>
   <i type="int" name="NREBOOT">     0</i>
   <i type="int" name="NMIN">     0</i>
   <i name="EREF">      0.00000000</i>
   <separator name="electronic smearing" >
    <i type="int" name="ISMEAR">     1</i>
    <i name="SIGMA">      0.20000000</i>
    <i name="KSPACING">      0.50000000</i>
    <i type="logical" name="KGAMMA"> T  </i>
   </separator>
   <separator name="electronic projectors" >
    <i type="logical" name="LREAL"> F  </i>
    <v name="ROPT">      0.00000000      0.00000000</v>
    <i type="int" name="LMAXPAW">  -100</i>
    <i type="int" name="LMAXMIX">     2</i>
    <i type="logical" name="NLSPLINE"> F  </i>
   </separator>
   <separator name="electronic startup" >
    <i type="int" name="ISTART">     0</i>
    <i type="int" name="ICHARG">     2</i>
    <i type="int" name="INIWAV">     1</i>
   </separator>
   <separator name="electronic spin" >
    <i type="int" name="ISPIN">     1</i>
    <i type="logical" name="LNONCOLLINEAR"> F  </i>
    <v name="MAGMOM">      1.00000000      1.00000000      1.00000000      1.00000000      1.00000000      1.00000000</v>
    <i name="NUPDOWN">     -1.00000000</i>
    <i type="logical" name="LSORBIT"> F  </i>
    <v name="SAXIS">      0.00000000      0.00000000      1.00000000</v>
    <i type="logical" name="LSPIRAL"> F  </i>
    <v name="QSPIRAL">      0.00000000      0.00000000      0.00000000</v>
    <i type="logical" name="LZEROZ"> F  </i>
   </separator>
   <separator name="electronic exchange-correlation" >
    <i type="logical" name="LASPH"> F  </i>
    <i type="logical" name="LMETAGGA"> F  </i>
   </separator>
   <separator name="electronic convergence" >
    <i type="int" name="NELM">    60</i>
    <i type="int" name="NELMDL">    -5</i>
    <i type="int" name="NELMIN">     2</i>
    <i name="ENINI">    400.00000000</i>
    <separator name="electronic convergence detail" >
     <i type="logical" name="LDIAG"> T  </i>
     <i type="logical" name="LSUBROT"> T  </i>
     <i name="WEIMIN">      0.00000000</i>
     <i name="EBREAK">      0.00000250</i>
     <i name="DEPER">      0.30000000</i>
     <i type="int" name="NRMM">     4</i>
     <i name="TIME">      0.40000000</i>
    </separator>
   </separator>
   <separator name="electronic mixer" >
    <i name="AMIX">      0.40000000</i>
    <i name="BMIX">      1.00000000</i>
    <i name="AMIN">      0.10000000</i>
    <i name="AMIX_MAG">      1.60000000</i>
    <i name="BMIX_MAG">      1.00000000</i>
    <separator name="electronic mixer details" >
     <i type="int" name="IMIX">     4</i>
     <i type="int" name="MAXMIX">   -45</i>
     <i name="WC">    100.00000000</i>
     <i type="int" name="INIMIX">     1</i>
     <i type="int" name="MIXPRE">     1</i>
     <i type="int" name="MREMOVE">     5</i>
    </separator>
   </separator>
   <separator name="electronic dipolcorrection" >
    <i type="logical" name="LDIPOL"> F  </i>
    <i type="logical" name="LMONO"> F  </i>
    <i type="int" name="IDIPOL">     0</i>
    <i name="EPSILON">      1.00000000</i>
    <v name="DIPOL">   -100.00000000   -100.00000000   -100.00000000</v>
    <i name="EFIELD">      0.00000000</i>
   </separator>
  </separator>
  <separator name="grids" >
   <i type="int" name="NGX">    40</i>
   <i type="int" name="NGY">    40</i>
   <i type="int" name="NGZ">    40</i>
   <i type="int" name="NGXF">    80</i>
   <i type="int" name="NGYF">    80</i>
   <i type="int" name="NGZF">    80</i>
   <i type="logical" name="ADDGRID"> F  </i>
  </separator>
  <separator name="ionic" >
   <i type="int" name="NSW">     0</i>
   <i type="int" name="IBRION">    -1</i>
   <i type="int" name="ISIF">     2</i>
   <i name="PSTRESS">      0.00000000</i>
   <i name="EDIFFG">      0.00100000</i>
   <i type="int" name="NFREE">     0</i>
   <i name="POTIM">      0.50000000</i>
   <i name="SMASS">     -3.00000000</i>
   <i name="SCALEE">      1.00000000</i>
  </separator>
  <separator name="ionic md" >
   <i name="TEBEG">      0.00010000</i>
   <i name="TEEND">      0.00010000</i>
   <i type="int" name="NBLOCK">     1</i>
   <i type="int" name="KBLOCK">     1</i>
   <i type="int" name="NPACO">   256</i>
   <i name="APACO">     16.00000000</i>
  </separator>
  <separator name="symmetry" >
   <i type="int" name="ISYM">     2</i>
   <i name="SYMPREC">      0.00001000</i>
  </separator>
  <separator name="dos" >
   <i type="logical" name="LORBIT"> F  </i>
   <v name="RWIGS">     -1.00000000     -1.00000000</v>
   <i type="int" name="NEDOS">   301</i>
   <i name="EMIN">     10.00000000</i>
   <i name="EMAX">    -10.00000000</i>
   <i name="EFERMI">      0.00000000</i>
  </separator>
  <separator name="writing" >
   <i type="int" name="NWRITE">     2</i>
   <i type="logical" name="LWAVE"> T  </i>
   <i type="logical" name="LCHARG"> T  </i>
   <i type="logical" name="LPARD"> F  </i>
   <i type="logical" name="LVTOT"> F  </i>
   <i type="logical" name="LVHAR"> F  </i>
   <i type="logical" name="LELF"> F  </i>
   <i type="logical" name="LOPTICS"> F  </i>
   <v name="STM">      0.00000000      0.00000000      0.00000000      0.00000000      0.00000000      0.00000000      0.00000000</v>
  </separator>
  <separator name="performance" >
   <i type="int" name="NPAR">     1</i>
   <i type="int" name="NSIM">     4</i>
   <i type="int" name="NBLK">    -1</i>
   <i type="logical" name="LPLANE"> T  </i>
   <i type="logical" name="LSCALAPACK"> F  </i>
   <i type="logical" name="LSCAAWARE"> F  </i>
   <i type="logical" name="LSCALU"> F  </i>
   <i type="logical" name="LASYNC"> F  </i>
   <i type="logical" name="LORBITALREAL"> F  </i>
  </separator>
  <separator name="miscellaneous" >
   <i type="int" name="IDIOT">     3</i>
   <i type="logical" name="LMUSIC"> F  </i>
   <v name="POMASS">      1.00000000     12.01100000</v>
   <v name="DARWINR">      0.00000000      0.00000000</v>
   <v name="DARWINV">      1.00000000      1.00000000</v>
   <i type="logical" name="LCORR"> T  </i>
  </separator>
  <i type="logical" name="GGA_COMPAT"> T  </i>
  <i type="logical" name="LBERRY"> F  </i>
  <i type="int" name="ICORELEVEL">     0</i>
  <i type="logical" name="LDAU"> F  </i>
  <i type="int" name="I_CONSTRAINED_M">     0</i>
  <separator name="electronic exchange-correlation" >
   <i type="string" name="GGA">--</i>
   <i type="int" name="VOSKOWN">     0</i>
   <i type="logical" name="LHFCALC"> F  </i>
   <i type="string" name="PRECFOCK"></i>
   <i type="logical" name="LHFONE"> F  </i>
   <i type="logical" name="LRHFCALC"> F  </i>
   <i type="logical" name="LTHOMAS"> F  </i>
   <i type="logical" name="LMODELHF"> F  </i>
   <i name="ENCUT4O">     -1.00000000</i>
   <i type="int" name="EXXOEP">     0</i>
   <i type="int" name="FOURORBIT">     0</i>
   <i name="AEXX">      0.00000000</i>
   <i name="HFALPHA">      0.00000000</i>
   <i name="ALDAX">      1.00000000</i>
   <i name="AGGAX">      1.00000000</i>
   <i name="ALDAC">      1.00000000</i>
   <i name="AGGAC">      1.00000000</i>
   <i type="int" name="NKREDX">     1</i>
   <i type="int" name="NKREDY">     1</i>
   <i type="int" name="NKREDZ">     1</i>
   <i type="logical" name="SHIFTRED"> F  </i>
   <i type="logical" name="ODDONLY"> F  </i>
   <i type="logical" name="EVENONLY"> F  </i>
   <i type="int" name="LMAXFOCK">     0</i>
   <i type="int" name="NMAXFOCKAE">     0</i>
   <i type="logical" name="LFOCKAEDFT"> F  </i>
   <i name="HFSCREEN">      0.00000000</i>
   <i name="HFSCREENC">      0.00000000</i>
  </separator>
  <separator name="vdW DFT" >
   <i type="logical" name="LUSE_VDW"> F  </i>
   <i name="Zab_VDW">     -0.84910000</i>
   <i name="PARAM1">      0.12340000</i>
   <i name="PARAM2">      1.00000000</i>
   <i name="PARAM3">      0.00000000</i>
  </separator>
  <separator name="model GW" >
   <i type="int" name="MODEL_GW">     0</i>
   <i name="MODEL_EPS0">     51.20000000</i>
   <i name="MODEL_ALPHA">      1.00000000</i>
  </separator>
  <separator name="linear response parameters" >
   <i type="logical" name="LEPSILON"> F  </i>
   <i type="logical" name="LRPA"> F  </i>
   <i type="logical" name="LNABLA"> F  </i>
   <i type="logical" name="LVEL"> F  </i>
   <i type="int" name="KINTER">     0</i>
   <i name="CSHIFT">      0.10000000</i>
   <i name="OMEGAMAX">     -1.00000000</i>
  </separator>
  <separator name="orbital magnetization" >
   <i type="logical" name="NUCIND"> F  </i>
   <v name="MAGPOS">      0.00000000      0.00000000      0.00000000</v>
   <i type="logical" name="LNICSALL"> T  </i>
   <i type="logical" name="ORBITALMAG"> F  </i>
   <i type="logical" name="LMAGBLOCH"> F  </i>
   <i type="logical" name="LCHIMAG"> F  </i>
   <i type="logical" name="LGAUGE"> T  </i>
   <i type="int" name="MAGATOM">     0</i>
   <v name="MAGDIPOL">      0.00000000      0.00000000      0.00000000</v>
   <v name="AVECCONST">      0.00000000      0.00000000      0.00000000</v>
  </separator>
  <separator name="response functions" >
   <i type="logical" name="LADDER"> F  </i>
   <i type="logical" name="LHARTREE"> T  </i>
   <i type="int" name="IBSE">     0</i>
   <i type="logical" name="LTCTE"> F  </i>
   <i type="logical" name="LTETE"> F  </i>
   <i type="logical" name="LFXCEPS"> F  </i>
   <i type="logical" name="L2ORDER"> F  </i>
   <i type="logical" name="LUSEW"> F  </i>
   <i name="ENCUTGW">     -2.00000000</i>
   <i name="ENCUTGWSOFT">     -2.00000000</i>
   <i name="ENCUTLF">     -1.00000000</i>
   <i type="int" name="LMAXMP2">    -1</i>
   <i name="SCISSOR">      0.00000000</i>
   <i type="int" name="NOMEGA">     0</i>
   <i type="int" name="NOMEGAR">     0</i>
   <i type="int" name="NBANDSGW">    -1</i>
   <i type="int" name="NBANDSO">    -1</i>
   <i type="int" name="NBANDSV">    -1</i>
   <i name="OPTEMAX">      0.00000000</i>
   <i type="int" name="NELM">     1</i>
   <i type="int" name="DIM">     3</i>
   <i type="int" name="ANTIRES">     0</i>
   <i name="OMEGAMAX">    -30.00000000</i>
   <i name="OMEGATL">   -200.00000000</i>
   <i type="int" name="OMEGAGRID">     0</i>
   <i name="CSHIFT">     -0.10000000</i>
   <i type="logical" name="SELFENERGY"> F  </i>
   <i type="logical" name="LSPECTRAL"> F  </i>
   <i type="logical" name="ODDONLYGW"> F  </i>
   <i type="logical" name="EVENONLYGW"> F  </i>
   <i type="int" name="NKREDLFX">     1</i>
   <i type="int" name="NKREDLFY">     1</i>
   <i type="int" name="NKREDLFZ">     1</i>
   <i type="int" name="MAXMEM">  1800</i>
   <i type="int" name="TELESCOPE">     0</i>
  </separator>
 </parameters>
 <atominfo>
  <atoms>       6 </atoms>
  <types>       2 </types>
  <array name="atoms" >
   <dimension dim="1">ion</dimension>
   <field type="string">element</field>
   <field type="int">atomtype</field>
   <set>
    <rc><c>H </c><c>   1</c></rc>
    <rc><c>H </c><c>   1</c></rc>
    <rc><c>H </c><c>   1</c></rc>
    <rc><c>H </c><c>   1</c></rc>
    <rc><c>C </c><c>   2</c></rc>
    <rc><c>C </c><c>   2</c></rc>
   </set>
  </array>
  <array name="atomtypes" >
   <dimension dim="1">type</dimension>
   <field type="int">atomspertype</field>
   <field type="string">element</field>
   <field>mass</field>
   <field>valence</field>
   <field type="string">pseudopotential</field>
   <set>
    <rc><c>   4</c><c>H </c><c>      1.00000000</c><c>      1.00000000</c><c> PAW_PBE H 15Jun2001                    </c></rc>
    <rc><c>   2</c><c>C </c><c>     12.01100000</c><c>      4.00000000</c><c> PAW_PBE C 08Apr2002                    </c></rc>
   </set>
  </array>
 </atominfo>
 <structure name="initialpos" >
  <crystal>
   <varray name="basis" >
    <v>       8.00000000       0.00000000       0.00000000 </v>
    <v>       0.00000000       8.00000000       0.00000000 </v>
    <v>       0.00000000       0.00000000       8.00000000 </v>
   </varray>
   <i name="volume">    512.00000000 </i>
   <varray name="rec_basis" >
    <v>       0.12500000       0.00000000       0.00000000 </v>
    <v>       0.00000000       0.12500000       0.00000000 </v>
    <v>       0.00000000       0.00000000       0.12500000 </v>
   </varray>
  </crystal>
  <varray name="positions" >
   <v>       0.50000000       0.61535400       0.65471187 </v>
   <v>       0.50000000       0.38464600       0.65471187 </v>
   <v>       0.50000000       0.61535400       0.34528813 </v>
   <v>       0.50000000       0.38464600       0.34528813 </v>
   <v>       0.50000000       0.50000000       0.58343500 </v>
   <v>       0.50000000       0.50000000       0.41656500 </v>
  </varray>
 </structure>
 <calculation>
  <scstep>
   <time name="dav">    0.38    0.38</time>
   <time name="total">    1.19    1.20</time>
   <energy>
    <i name="alphaZ">      1.18323955 </i>
    <i name="ewald">    172.18683896 </i>
    <i name="hartreedc">   -393.99545989 </i>
    <i name="XCdc">     35.70888611 </i>
    <i name="pawpsdc">     78.78818903 </i>
    <i name="pawaedc">    -81.12517927 </i>
    <i name="eentropy">      0.01257771 </i>
    <i name="bandstr">    -64.80713774 </i>
    <i name="atom">    344.16897840 </i>
    <i name="e_fr_energy">     92.12093286 </i>
    <i name="e_wo_entrp">     92.10835515 </i>
    <i name="e_0_energy">     92.11674029 </i>
   </energy>
  </scstep>
  <scstep>
   <time name="dav">    0.50    0.50</time>
   <time name="total">    0.50    0.50</time>
   <energy>
    <i name="e_fr_energy">     -9.71238568 </i>
    <i name="e_wo_entrp">     -9.72398149 </i>
    <i name="e_0_energy">     -9.71625095 </i>
   </energy>
  </scstep>
  <scstep>
   <time name="dav">    0.50    0.50</time>
   <time name="total">    0.50    0.51</time>
   <energy>
    <i name="e_fr_energy">    -35.43620096 </i>
    <i name="e_wo_entrp">    -35.44779677 </i>
    <i name="e_0_energy">    -35.44006623 </i>
   </energy>
  </scstep>
  <scstep>
   <time name="dav">    0.42    0.42</time>
   <time name="total">    0.42    0.43</time>
   <energy>
    <i name="e_fr_energy">    -36.12537667 </i>
    <i name="e_wo_entrp">    -36.13697248 </i>
    <i name="e_0_energy">    -36.12924194 </i>
   </energy>
  </scstep>
  <scstep>
   <time name="dav">    0.52    0.52</time>
   <time name="total">    0.65    0.66</time>
   <energy>
    <i name="e_fr_energy">    -36.13876814 </i>
    <i name="e_wo_entrp">    -36.15036395 </i>
    <i name="e_0_energy">    -36.14263341 </i>
   </energy>
  </scstep>
  <scstep>
   <time name="dav">    0.40    0.40</time>
   <time name="total">    1.32    1.33</time>
   <energy>
    <i name="e_fr_energy">    -32.79749857 </i>
    <i name="e_wo_entrp">    -32.80909438 </i>
    <i name="e_0_energy">    -32.80136384 </i>
   </energy>
  </scstep>
  <scstep>
   <time name="dav">    0.50    0.50</time>
   <time name="total">    1.43    1.44</time>
   <energy>
    <i name="e_fr_energy">    -32.06116827 </i>
    <i name="e_wo_entrp">    -32.07276408 </i>
    <i name="e_0_energy">    -32.06503354 </i>
   </energy>
  </scstep>
  <scstep>
   <time name="dav">    0.42    0.42</time>
   <time name="total">    1.34    1.36</time>
   <energy>
    <i name="e_fr_energy">    -31.94197808 </i>
    <i name="e_wo_entrp">    -31.95357389 </i>
    <i name="e_0_energy">    -31.94584335 </i>
   </energy>
  </scstep>
  <scstep>
   <time name="dav">    0.40    0.40</time>
   <time name="total">    1.37    1.39</time>
   <energy>
    <i name="e_fr_energy">    -31.93582471 </i>
    <i name="e_wo_entrp">    -31.94742052 </i>
    <i name="e_0_energy">    -31.93968998 </i>
   </energy>
  </scstep>
  <scstep>
   <time name="dav">    0.37    0.37</time>
   <time name="total">    1.31    1.32</time>
   <energy>
    <i name="e_fr_energy">    -31.93685391 </i>
    <i name="e_wo_entrp">    -31.94844972 </i>
    <i name="e_0_energy">    -31.94071918 </i>
   </energy>
  </scstep>
  <scstep>
   <time name="dav">    0.40    0.40</time>
   <time name="total">    1.31    1.32</time>
   <energy>
    <i name="e_fr_energy">    -31.93760730 </i>
    <i name="e_wo_entrp">    -31.94920311 </i>
    <i name="e_0_energy">    -31.94147257 </i>
   </energy>
  </scstep>
  <scstep>
   <time name="dav">    0.37    0.37</time>
   <time name="total">    1.28    1.29</time>
   <energy>
    <i name="e_fr_energy">    -31.94201953 </i>
    <i name="e_wo_entrp">    -31.95361534 </i>
    <i name="e_0_energy">    -31.94588480 </i>
   </energy>
  </scstep>
  <scstep>
   <time name="dav">    0.37    0.37</time>
   <time name="total">    1.27    1.28</time>
   <energy>
    <i name="e_fr_energy">    -31.94488973 </i>
    <i name="e_wo_entrp">    -31.95648554 </i>
    <i name="e_0_energy">    -31.94875500 </i>
   </energy>
  </scstep>
  <scstep>
   <time name="dav">    0.40    0.40</time>
   <time name="total">    1.30    1.31</time>
   <energy>
    <i name="e_fr_energy">    -31.94586163 </i>
    <i name="e_wo_entrp">    -31.95745744 </i>
    <i name="e_0_energy">    -31.94972690 </i>
   </energy>
  </scstep>
  <scstep>
   <time name="dav">    0.42    0.42</time>
   <time name="total">    1.32    1.33</time>
   <energy>
    <i name="e_fr_energy">    -31.94604068 </i>
    <i name="e_wo_entrp">    -31.95763649 </i>
    <i name="e_0_energy">    -31.94990595 </i>
   </energy>
  </scstep>
  <scstep>
   <time name="dav">    0.37    0.37</time>
   <time name="total">    1.29    1.30</time>
   <energy>
    <i name="e_fr_energy">    -31.94615789 </i>
    <i name="e_wo_entrp">    -31.95775370 </i>
    <i name="e_0_energy">    -31.95002316 </i>
   </energy>
  </scstep>
  <scstep>
   <time name="dav">    0.40    0.40</time>
   <time name="total">    1.19    1.20</time>
   <energy>
    <i name="alphaZ">      1.18323955 </i>
    <i name="ewald">    172.18683896 </i>
    <i name="hartreedc">   -450.67447402 </i>
    <i name="XCdc">     39.17681050 </i>
    <i name="pawpsdc">    158.75170511 </i>
    <i name="pawaedc">   -161.43900637 </i>
    <i name="eentropy">      0.01159581 </i>
    <i name="bandstr">   -135.31185689 </i>
    <i name="atom">    344.16897840 </i>
    <i name="e_fr_energy">    -31.94616894 </i>
    <i name="e_wo_entrp">    -31.95776475 </i>
    <i name="e_0_energy">    -31.95003421 </i>
   </energy>
  </scstep>
  <parameters_embedded>
   <separator name="dft+d2" >
    <i type="logical" name="LVDW"> F  </i>
   </separator>
  </parameters_embedded>
  <structure>
   <crystal>
    <varray name="basis" >
     <v>       8.00000000       0.00000000       0.00000000 </v>
     <v>       0.00000000       8.00000000       0.00000000 </v>
     <v>       0.00000000       0.00000000       8.00000000 </v>
    </varray>
    <i name="volume">    512.00000000 </i>
    <varray name="rec_basis" >
     <v>       0.12500000       0.00000000       0.00000000 </v>
     <v>       0.00000000       0.12500000       0.00000000 </v>
     <v>       0.00000000       0.00000000       0.12500000 </v>
    </varray>
   </crystal>
   <varray name="positions" >
    <v>       0.50000000       0.61535400       0.65471187 </v>
    <v>       0.50000000       0.38464600       0.65471187 </v>
    <v>       0.50000000       0.61535400       0.34528813 </v>
    <v>       0.50000000       0.38464600       0.34528813 </v>
    <v>       0.50000000       0.50000000       0.58343500 </v>
    <v>       0.50000000       0.50000000       0.41656500 </v>
   </varray>
  </structure>
  <varray name="forces" >
   <v>       0.00000000       0.22334024       0.12459032 </v>
   <v>       0.00000000      -0.22334024       0.12459032 </v>
   <v>       0.00000000       0.22334024      -0.12459032 </v>
   <v>       0.00000000      -0.22334024      -0.12459032 </v>
   <v>       0.00000000       0.00000000      -0.33406101 </v>
   <v>       0.00000000       0.00000000       0.33406101 </v>
  </varray>
  <varray name="stress" >
   <v>      -1.65645643       0.00000000       0.00000000 </v>
   <v>       0.00000000       1.03905177       0.00000000 </v>
   <v>       0.00000000       0.00000000      -0.95668115 </v>
  </varray>
  <energy>
   <i name="e_fr_energy">    -31.94616894 </i>
   <i name="e_wo_entrp">    -31.95003421 </i>
   <i name="e_0_energy">      0.01159581 </i>
  </energy>
  <time name="totalsc">   21.59   21.90</time>
  <eigenvalues>
   <array>
    <dimension dim="1">band</dimension>
    <dimension dim="2">kpoint</dimension>
    <dimension dim="3">spin</dimension>
    <field>eigene</field>
    <field>occ</field>
    <set>
     <set comment="spin 1">
      <set comment="kpoint 1">
       <r>  -18.4079    1.0000 </r>
       <r>  -13.8782    1.0000 </r>
       <r>  -11.0750    1.0000 </r>
       <r>   -9.7937    1.0000 </r>
       <r>   -8.1358    1.0000 </r>
       <r>   -6.3653    1.0000 </r>
       <r>   -0.6789    0.0000 </r>
       <r>   -0.4894    0.0000 </r>
       <r>    1.2901    0.0000 </r>
       <r>    1.3533    0.0000 </r>
      </set>
     </set>
    </set>
   </array>
  </eigenvalues>
  <separator name="orbital magnetization" >
   <v name="MAGDIPOLOUT">      0.00000000      0.00000000      0.00000000</v>
  </separator>
  <dos>
   <i name="efermi">     -6.19688502 </i>
   <total>
    <array>
     <dimension dim="1">gridpoints</dimension>
     <dimension dim="2">spin</dimension>
     <field>energy</field>
     <field>total</field>
     <field>integrated</field>
     <set>
      <set comment="spin 1">
       <r>   -20.4079     0.0000     0.0000 </r>
       <r>   -20.3287     0.0000     0.0000 </r>
       <r>   -20.2495     0.0000     0.0000 </r>
       <r>   -20.1703     0.0000     0.0000 </r>
       <r>   -20.0911     0.0000     0.0000 </r>
       <r>   -20.0119     0.0000     0.0000 </r>
       <r>   -19.9327     0.0000     0.0000 </r>
       <r>   -19.8535     0.0000     0.0000 </r>
       <r>   -19.7743     0.0000     0.0000 </r>
       <r>   -19.6951     0.0000     0.0000 </r>
       <r>   -19.6159     0.0000     0.0000 </r>
       <r>   -19.5367     0.0000     0.0000 </r>
       <r>   -19.4575     0.0000     0.0000 </r>
       <r>   -19.3783     0.0000     0.0000 </r>
       <r>   -19.2991     0.0000     0.0000 </r>
       <r>   -19.2199     0.0000     0.0000 </r>
       <r>   -19.1407     0.0000     0.0000 </r>
       <r>   -19.0615    -0.0005     0.0000 </r>
       <r>   -18.9823    -0.0043    -0.0004 </r>
       <r>   -18.9031    -0.0278    -0.0026 </r>
       <r>   -18.8239    -0.1222    -0.0123 </r>
       <r>   -18.7447    -0.3318    -0.0385 </r>
       <r>   -18.6655    -0.3947    -0.0698 </r>
       <r>   -18.5863     0.6312    -0.0198 </r>
       <r>   -18.5070     3.5927     0.2647 </r>
       <r>   -18.4278     7.1684     0.8325 </r>
       <r>   -18.3486     8.1528     1.4782 </r>
       <r>   -18.2694     5.5078     1.9145 </r>
       <r>   -18.1902     1.8889     2.0641 </r>
       <r>   -18.1110    -0.0937     2.0567 </r>
       <r>   -18.0318    -0.4243     2.0231 </r>
       <r>   -17.9526    -0.2164     2.0059 </r>
       <r>   -17.8734    -0.0617     2.0010 </r>
       <r>   -17.7942    -0.0115     2.0001 </r>
       <r>   -17.7150    -0.0015     2.0000 </r>
       <r>   -17.6358    -0.0001     2.0000 </r>
       <r>   -17.5566     0.0000     2.0000 </r>
       <r>   -17.4774     0.0000     2.0000 </r>
       <r>   -17.3982     0.0000     2.0000 </r>
       <r>   -17.3190     0.0000     2.0000 </r>
       <r>   -17.2398     0.0000     2.0000 </r>
       <r>   -17.1606     0.0000     2.0000 </r>
       <r>   -17.0814     0.0000     2.0000 </r>
       <r>   -17.0022     0.0000     2.0000 </r>
       <r>   -16.9230     0.0000     2.0000 </r>
       <r>   -16.8438     0.0000     2.0000 </r>
       <r>   -16.7646     0.0000     2.0000 </r>
       <r>   -16.6854     0.0000     2.0000 </r>
       <r>   -16.6062     0.0000     2.0000 </r>
       <r>   -16.5269     0.0000     2.0000 </r>
       <r>   -16.4477     0.0000     2.0000 </r>
       <r>   -16.3685     0.0000     2.0000 </r>
       <r>   -16.2893     0.0000     2.0000 </r>
       <r>   -16.2101     0.0000     2.0000 </r>
       <r>   -16.1309     0.0000     2.0000 </r>
       <r>   -16.0517     0.0000     2.0000 </r>
       <r>   -15.9725     0.0000     2.0000 </r>
       <r>   -15.8933     0.0000     2.0000 </r>
       <r>   -15.8141     0.0000     2.0000 </r>
       <r>   -15.7349     0.0000     2.0000 </r>
       <r>   -15.6557     0.0000     2.0000 </r>
       <r>   -15.5765     0.0000     2.0000 </r>
       <r>   -15.4973     0.0000     2.0000 </r>
       <r>   -15.4181     0.0000     2.0000 </r>
       <r>   -15.3389     0.0000     2.0000 </r>
       <r>   -15.2597     0.0000     2.0000 </r>
       <r>   -15.1805     0.0000     2.0000 </r>
       <r>   -15.1013     0.0000     2.0000 </r>
       <r>   -15.0221     0.0000     2.0000 </r>
       <r>   -14.9429     0.0000     2.0000 </r>
       <r>   -14.8637     0.0000     2.0000 </r>
       <r>   -14.7845     0.0000     2.0000 </r>
       <r>   -14.7053     0.0000     2.0000 </r>
       <r>   -14.6261     0.0000     2.0000 </r>
       <r>   -14.5468    -0.0003     2.0000 </r>
       <r>   -14.4676    -0.0029     1.9997 </r>
       <r>   -14.3884    -0.0200     1.9982 </r>
       <r>   -14.3092    -0.0953     1.9906 </r>
       <r>   -14.2300    -0.2868     1.9679 </r>
       <r>   -14.1508    -0.4288     1.9339 </r>
       <r>   -14.0716     0.2943     1.9573 </r>
       <r>   -13.9924     2.8972     2.1867 </r>
       <r>   -13.9132     6.5890     2.7086 </r>
       <r>   -13.8340     8.2745     3.3640 </r>
       <r>   -13.7548     6.1987     3.8549 </r>
       <r>   -13.6756     2.4987     4.0528 </r>
       <r>   -13.5964     0.1268     4.0629 </r>
       <r>   -13.5172    -0.4343     4.0285 </r>
       <r>   -13.4380    -0.2596     4.0079 </r>
       <r>   -13.3588    -0.0813     4.0015 </r>
       <r>   -13.2796    -0.0163     4.0002 </r>
       <r>   -13.2004    -0.0022     4.0000 </r>
       <r>   -13.1212    -0.0002     4.0000 </r>
       <r>   -13.0420     0.0000     4.0000 </r>
       <r>   -12.9628     0.0000     4.0000 </r>
       <r>   -12.8836     0.0000     4.0000 </r>
       <r>   -12.8044     0.0000     4.0000 </r>
       <r>   -12.7252     0.0000     4.0000 </r>
       <r>   -12.6460     0.0000     4.0000 </r>
       <r>   -12.5667     0.0000     4.0000 </r>
       <r>   -12.4875     0.0000     4.0000 </r>
       <r>   -12.4083     0.0000     4.0000 </r>
       <r>   -12.3291     0.0000     4.0000 </r>
       <r>   -12.2499     0.0000     4.0000 </r>
       <r>   -12.1707     0.0000     4.0000 </r>
       <r>   -12.0915     0.0000     4.0000 </r>
       <r>   -12.0123     0.0000     4.0000 </r>
       <r>   -11.9331     0.0000     4.0000 </r>
       <r>   -11.8539     0.0000     4.0000 </r>
       <r>   -11.7747    -0.0001     4.0000 </r>
       <r>   -11.6955    -0.0012     3.9999 </r>
       <r>   -11.6163    -0.0097     3.9991 </r>
       <r>   -11.5371    -0.0543     3.9948 </r>
       <r>   -11.4579    -0.1981     3.9791 </r>
       <r>   -11.3787    -0.4138     3.9464 </r>
       <r>   -11.2995    -0.1715     3.9328 </r>
       <r>   -11.2203     1.6374     4.0625 </r>
       <r>   -11.1411     5.1851     4.4731 </r>
       <r>   -11.0619     8.0502     5.1107 </r>
       <r>   -10.9827     7.3965     5.6966 </r>
       <r>   -10.9035     3.9157     6.0067 </r>
       <r>   -10.8243     0.8075     6.0707 </r>
       <r>   -10.7451    -0.3673     6.0416 </r>
       <r>   -10.6659    -0.3512     6.0138 </r>
       <r>   -10.5866    -0.1359     6.0030 </r>
       <r>   -10.5074    -0.0322     6.0004 </r>
       <r>   -10.4282    -0.0059     6.0000 </r>
       <r>   -10.3490    -0.0075     5.9994 </r>
       <r>   -10.2698    -0.0413     5.9961 </r>
       <r>   -10.1906    -0.1631     5.9832 </r>
       <r>   -10.1114    -0.3837     5.9528 </r>
       <r>   -10.0322    -0.2952     5.9294 </r>
       <r>    -9.9530     1.1656     6.0217 </r>
       <r>    -9.8738     4.5077     6.3788 </r>
       <r>    -9.7946     7.7496     6.9926 </r>
       <r>    -9.7154     7.7936     7.6099 </r>
       <r>    -9.6362     4.5930     7.9736 </r>
       <r>    -9.5570     1.2212     8.0704 </r>
       <r>    -9.4778    -0.2822     8.0480 </r>
       <r>    -9.3986    -0.3880     8.0173 </r>
       <r>    -9.3194    -0.1673     8.0040 </r>
       <r>    -9.2402    -0.0427     8.0006 </r>
       <r>    -9.1610    -0.0072     8.0001 </r>
       <r>    -9.0818    -0.0008     8.0000 </r>
       <r>    -9.0026    -0.0001     8.0000 </r>
       <r>    -8.9234     0.0000     8.0000 </r>
       <r>    -8.8442    -0.0001     8.0000 </r>
       <r>    -8.7650    -0.0009     7.9999 </r>
       <r>    -8.6858    -0.0079     7.9993 </r>
       <r>    -8.6065    -0.0459     7.9957 </r>
       <r>    -8.5273    -0.1761     7.9817 </r>
       <r>    -8.4481    -0.3963     7.9503 </r>
       <r>    -8.3689    -0.2534     7.9302 </r>
       <r>    -8.2897     1.3385     8.0363 </r>
       <r>    -8.2105     4.7680     8.4139 </r>
       <r>    -8.1313     7.8783     9.0379 </r>
       <r>    -8.0521     7.6539     9.6441 </r>
       <r>    -7.9729     4.3328     9.9873 </r>
       <r>    -7.8937     1.0549    10.0709 </r>
       <r>    -7.8145    -0.3197    10.0455 </r>
       <r>    -7.7353    -0.3746    10.0159 </r>
       <r>    -7.6561    -0.1548    10.0036 </r>
       <r>    -7.5769    -0.0384    10.0006 </r>
       <r>    -7.4977    -0.0063    10.0001 </r>
       <r>    -7.4185    -0.0007    10.0000 </r>
       <r>    -7.3393    -0.0001    10.0000 </r>
       <r>    -7.2601     0.0000    10.0000 </r>
       <r>    -7.1809     0.0000    10.0000 </r>
       <r>    -7.1017     0.0000    10.0000 </r>
       <r>    -7.0225    -0.0004    10.0000 </r>
       <r>    -6.9433    -0.0039     9.9997 </r>
       <r>    -6.8641    -0.0257     9.9976 </r>
       <r>    -6.7849    -0.1152     9.9885 </r>
       <r>    -6.7057    -0.3210     9.9631 </r>
       <r>    -6.6265    -0.4062     9.9309 </r>
       <r>    -6.5472     0.5422     9.9738 </r>
       <r>    -6.4680     3.4200    10.2447 </r>
       <r>    -6.3888     7.0360    10.8020 </r>
       <r>    -6.3096     8.1962    11.4512 </r>
       <r>    -6.2304     5.6800    11.9011 </r>
       <r>    -6.1512     2.0311    12.0619 </r>
       <r>    -6.0720    -0.0462    12.0583 </r>
       <r>    -5.9928    -0.4286    12.0243 </r>
       <r>    -5.9136    -0.2266    12.0064 </r>
       <r>    -5.8344    -0.0661    12.0011 </r>
       <r>    -5.7552    -0.0125    12.0001 </r>
       <r>    -5.6760    -0.0016    12.0000 </r>
       <r>    -5.5968    -0.0001    12.0000 </r>
       <r>    -5.5176     0.0000    12.0000 </r>
       <r>    -5.4384     0.0000    12.0000 </r>
       <r>    -5.3592     0.0000    12.0000 </r>
       <r>    -5.2800     0.0000    12.0000 </r>
       <r>    -5.2008     0.0000    12.0000 </r>
       <r>    -5.1216     0.0000    12.0000 </r>
       <r>    -5.0424     0.0000    12.0000 </r>
       <r>    -4.9632     0.0000    12.0000 </r>
       <r>    -4.8840     0.0000    12.0000 </r>
       <r>    -4.8048     0.0000    12.0000 </r>
       <r>    -4.7256     0.0000    12.0000 </r>
       <r>    -4.6464     0.0000    12.0000 </r>
       <r>    -4.5671     0.0000    12.0000 </r>
       <r>    -4.4879     0.0000    12.0000 </r>
       <r>    -4.4087     0.0000    12.0000 </r>
       <r>    -4.3295     0.0000    12.0000 </r>
       <r>    -4.2503     0.0000    12.0000 </r>
       <r>    -4.1711     0.0000    12.0000 </r>
       <r>    -4.0919     0.0000    12.0000 </r>
       <r>    -4.0127     0.0000    12.0000 </r>
       <r>    -3.9335     0.0000    12.0000 </r>
       <r>    -3.8543     0.0000    12.0000 </r>
       <r>    -3.7751     0.0000    12.0000 </r>
       <r>    -3.6959     0.0000    12.0000 </r>
       <r>    -3.6167     0.0000    12.0000 </r>
       <r>    -3.5375     0.0000    12.0000 </r>
       <r>    -3.4583     0.0000    12.0000 </r>
       <r>    -3.3791     0.0000    12.0000 </r>
       <r>    -3.2999     0.0000    12.0000 </r>
       <r>    -3.2207     0.0000    12.0000 </r>
       <r>    -3.1415     0.0000    12.0000 </r>
       <r>    -3.0623     0.0000    12.0000 </r>
       <r>    -2.9831     0.0000    12.0000 </r>
       <r>    -2.9039     0.0000    12.0000 </r>
       <r>    -2.8247     0.0000    12.0000 </r>
       <r>    -2.7455     0.0000    12.0000 </r>
       <r>    -2.6663     0.0000    12.0000 </r>
       <r>    -2.5870     0.0000    12.0000 </r>
       <r>    -2.5078     0.0000    12.0000 </r>
       <r>    -2.4286     0.0000    12.0000 </r>
       <r>    -2.3494     0.0000    12.0000 </r>
       <r>    -2.2702     0.0000    12.0000 </r>
       <r>    -2.1910     0.0000    12.0000 </r>
       <r>    -2.1118     0.0000    12.0000 </r>
       <r>    -2.0326     0.0000    12.0000 </r>
       <r>    -1.9534     0.0000    12.0000 </r>
       <r>    -1.8742     0.0000    12.0000 </r>
       <r>    -1.7950     0.0000    12.0000 </r>
       <r>    -1.7158     0.0000    12.0000 </r>
       <r>    -1.6366     0.0000    12.0000 </r>
       <r>    -1.5574     0.0000    12.0000 </r>
       <r>    -1.4782     0.0000    12.0000 </r>
       <r>    -1.3990    -0.0001    12.0000 </r>
       <r>    -1.3198    -0.0007    11.9999 </r>
       <r>    -1.2406    -0.0059    11.9995 </r>
       <r>    -1.1614    -0.0365    11.9966 </r>
       <r>    -1.0822    -0.1513    11.9846 </r>
       <r>    -1.0030    -0.3861    11.9540 </r>
       <r>    -0.9238    -0.4263    11.9203 </r>
       <r>    -0.8446     0.6972    11.9755 </r>
       <r>    -0.7654     3.7688    12.2740 </r>
       <r>    -0.6862     7.8078    12.8924 </r>
       <r>    -0.6069    10.6887    13.7390 </r>
       <r>    -0.5277    11.3513    14.6380 </r>
       <r>    -0.4485     9.7111    15.4072 </r>
       <r>    -0.3693     6.1127    15.8913 </r>
       <r>    -0.2901     2.2377    16.0686 </r>
       <r>    -0.2109     0.0012    16.0687 </r>
       <r>    -0.1317    -0.4819    16.0305 </r>
       <r>    -0.0525    -0.2778    16.0085 </r>
       <r>     0.0267    -0.0871    16.0016 </r>
       <r>     0.1059    -0.0177    16.0002 </r>
       <r>     0.1851    -0.0024    16.0000 </r>
       <r>     0.2643    -0.0002    16.0000 </r>
       <r>     0.3435     0.0000    16.0000 </r>
       <r>     0.4227     0.0000    16.0000 </r>
       <r>     0.5019     0.0000    16.0000 </r>
       <r>     0.5811    -0.0001    16.0000 </r>
       <r>     0.6603    -0.0011    15.9999 </r>
       <r>     0.7395    -0.0092    15.9992 </r>
       <r>     0.8187    -0.0568    15.9947 </r>
       <r>     0.8979    -0.2362    15.9760 </r>
       <r>     0.9771    -0.6113    15.9275 </r>
       <r>     1.0563    -0.6830    15.8735 </r>
       <r>     1.1355     1.2240    15.9704 </r>
       <r>     1.2147     6.6263    16.4952 </r>
       <r>     1.2939    13.3719    17.5543 </r>
       <r>     1.3732    15.8240    18.8077 </r>
       <r>     1.4524    11.5317    19.7210 </r>
       <r>     1.5316     4.6666    20.0906 </r>
       <r>     1.6108     0.3156    20.1156 </r>
       <r>     1.6900    -0.7710    20.0546 </r>
       <r>     1.7692    -0.4880    20.0159 </r>
       <r>     1.8484    -0.1611    20.0032 </r>
       <r>     1.9276    -0.0343    20.0004 </r>
       <r>     2.0068    -0.0050    20.0000 </r>
       <r>     2.0860    -0.0005    20.0000 </r>
       <r>     2.1652     0.0000    20.0000 </r>
       <r>     2.2444     0.0000    20.0000 </r>
       <r>     2.3236     0.0000    20.0000 </r>
       <r>     2.4028     0.0000    20.0000 </r>
       <r>     2.4820     0.0000    20.0000 </r>
       <r>     2.5612     0.0000    20.0000 </r>
       <r>     2.6404     0.0000    20.0000 </r>
       <r>     2.7196     0.0000    20.0000 </r>
       <r>     2.7988     0.0000    20.0000 </r>
       <r>     2.8780     0.0000    20.0000 </r>
       <r>     2.9572     0.0000    20.0000 </r>
       <r>     3.0364     0.0000    20.0000 </r>
       <r>     3.1156     0.0000    20.0000 </r>
       <r>     3.1948     0.0000    20.0000 </r>
       <r>     3.2740     0.0000    20.0000 </r>
       <r>     3.3533     0.0000    20.0000 </r>
      </set>
     </set>
    </array>
   </total>
  </dos>
 </calculation>
 <structure name="finalpos" >
  <crystal>
   <varray name="basis" >
    <v>       8.00000000       0.00000000       0.00000000 </v>
    <v>       0.00000000       8.00000000       0.00000000 </v>
    <v>       0.00000000       0.00000000       8.00000000 </v>
   </varray>
   <i name="volume">    512.00000000 </i>
   <varray name="rec_basis" >
    <v>       0.12500000       0.00000000       0.00000000 </v>
    <v>       0.00000000       0.12500000       0.00000000 </v>
    <v>       0.00000000       0.00000000       0.12500000 </v>
   </varray>
  </crystal>
  <varray name="positions" >
   <v>       0.50000000       0.61535400       0.65471187 </v>
   <v>       0.50000000       0.38464600       0.65471187 </v>
   <v>       0.50000000       0.61535400       0.34528813 </v>
   <v>       0.50000000       0.38464600       0.34528813 </v>
   <v>       0.50000000       0.50000000       0.58343500 </v>
   <v>       0.50000000       0.50000000       0.41656500 </v>
  </varray>
 </structure>
</modeling>
