unknown system                          
           1
     8.000000    0.000000    0.000000
     0.000000    8.000000    0.000000
     0.000000    0.000000    8.000000
   H    C 
   4   2
Direct configuration=     1
   0.50000000  0.61535400  0.65471187
   0.50000000  0.38464600  0.65471187
   0.50000000  0.61535400  0.34528813
   0.50000000  0.38464600  0.34528813
   0.50000000  0.50000000  0.58343500
   0.50000000  0.50000000  0.41656500
