   8   8   0   0
  0.6400000E+02  0.8000000E-09  0.8000000E-09  0.8000000E-09  0.5000000E-15
  1.000000000000000E-004
  CAR 
 unknown system                          
      3.52045051    -20.06916262  301     -6.70156160      1.00000000
    -20.069  0.0000E+00  0.0000E+00
    -19.991  0.0000E+00  0.0000E+00
    -19.912  0.0000E+00  0.0000E+00
    -19.833  0.0000E+00  0.0000E+00
    -19.755  0.0000E+00  0.0000E+00
    -19.676  0.0000E+00  0.0000E+00
    -19.597  0.0000E+00  0.0000E+00
    -19.519  0.0000E+00  0.0000E+00
    -19.440  0.0000E+00  0.0000E+00
    -19.361  0.0000E+00  0.0000E+00
    -19.283  0.0000E+00  0.0000E+00
    -19.204  0.1271E-14  0.9992E-16
    -19.126  0.1007E-12  0.8016E-14
    -19.047  0.5891E-11  0.4713E-12
    -18.968  0.2540E-09  0.2045E-10
    -18.890  0.8076E-08  0.6555E-09
    -18.811  0.1894E-06  0.1555E-07
    -18.732  0.3278E-05  0.2733E-06
    -18.654  0.4188E-04  0.3566E-05
    -18.575  0.3951E-03  0.3464E-04
    -18.497  0.2754E-02  0.2512E-03
    -18.418  0.1419E-01  0.1367E-02
    -18.339  0.5403E-01  0.5615E-02
    -18.261  0.1521E+00  0.1758E-01
    -18.182  0.3169E+00  0.4250E-01
    -18.103  0.4883E+00  0.8089E-01
    -18.025  0.5567E+00  0.1247E+00
    -17.946  0.4695E+00  0.1616E+00
    -17.867  0.2930E+00  0.1846E+00
    -17.789  0.1353E+00  0.1953E+00
    -17.710  0.4618E-01  0.1989E+00
    -17.632  0.1166E-01  0.1998E+00
    -17.553  0.2176E-02  0.2000E+00
    -17.474  0.3001E-03  0.2000E+00
    -17.396  0.3058E-04  0.2000E+00
    -17.317  0.2301E-05  0.2000E+00
    -17.238  0.1278E-06  0.2000E+00
    -17.160  0.5238E-08  0.2000E+00
    -17.081  0.1583E-09  0.2000E+00
    -17.003  0.3530E-11  0.2000E+00
    -16.924  0.5817E-13  0.2000E+00
    -16.845  0.5648E-15  0.2000E+00
    -16.767  0.0000E+00  0.2000E+00
    -16.688  0.0000E+00  0.2000E+00
    -16.609  0.0000E+00  0.2000E+00
    -16.531  0.0000E+00  0.2000E+00
    -16.452  0.0000E+00  0.2000E+00
    -16.373  0.0000E+00  0.2000E+00
    -16.295  0.0000E+00  0.2000E+00
    -16.216  0.0000E+00  0.2000E+00
    -16.138  0.0000E+00  0.2000E+00
    -16.059  0.0000E+00  0.2000E+00
    -15.980  0.0000E+00  0.2000E+00
    -15.902  0.0000E+00  0.2000E+00
    -15.823  0.0000E+00  0.2000E+00
    -15.744  0.0000E+00  0.2000E+00
    -15.666  0.1130E-14  0.2000E+00
    -15.587  0.9319E-13  0.2000E+00
    -15.509  0.5478E-11  0.2000E+00
    -15.430  0.2375E-09  0.2000E+00
    -15.351  0.7595E-08  0.2000E+00
    -15.273  0.1791E-06  0.2000E+00
    -15.194  0.3118E-05  0.2000E+00
    -15.115  0.4006E-04  0.2000E+00
    -15.037  0.3801E-03  0.2000E+00
    -14.958  0.2664E-02  0.2002E+00
    -14.879  0.1380E-01  0.2013E+00
    -14.801  0.5285E-01  0.2055E+00
    -14.722  0.1497E+00  0.2173E+00
    -14.644  0.3135E+00  0.2419E+00
    -14.565  0.4857E+00  0.2801E+00
    -14.486  0.5568E+00  0.3239E+00
    -14.408  0.4723E+00  0.3610E+00
    -14.329  0.2964E+00  0.3843E+00
    -14.250  0.1376E+00  0.3951E+00
    -14.172  0.4724E-01  0.3989E+00
    -14.093  0.1199E-01  0.3998E+00
    -14.014  0.2251E-02  0.4000E+00
    -13.936  0.3122E-03  0.4000E+00
    -13.857  0.3199E-04  0.4000E+00
    -13.779  0.2421E-05  0.4000E+00
    -13.700  0.1352E-06  0.4000E+00
    -13.621  0.5573E-08  0.4000E+00
    -13.543  0.1694E-09  0.4000E+00
    -13.464  0.3798E-11  0.4000E+00
    -13.385  0.6297E-13  0.4000E+00
    -13.307  0.5648E-15  0.4000E+00
    -13.228  0.0000E+00  0.4000E+00
    -13.150  0.0000E+00  0.4000E+00
    -13.071  0.0000E+00  0.4000E+00
    -12.992  0.0000E+00  0.4000E+00
    -12.914  0.0000E+00  0.4000E+00
    -12.835  0.0000E+00  0.4000E+00
    -12.756  0.0000E+00  0.4000E+00
    -12.678  0.0000E+00  0.4000E+00
    -12.599  0.0000E+00  0.4000E+00
    -12.520  0.0000E+00  0.4000E+00
    -12.442  0.0000E+00  0.4000E+00
    -12.363  0.0000E+00  0.4000E+00
    -12.285  0.0000E+00  0.4000E+00
    -12.206  0.0000E+00  0.4000E+00
    -12.127  0.0000E+00  0.4000E+00
    -12.049  0.0000E+00  0.4000E+00
    -11.970  0.0000E+00  0.4000E+00
    -11.891  0.0000E+00  0.4000E+00
    -11.813  0.0000E+00  0.4000E+00
    -11.734  0.0000E+00  0.4000E+00
    -11.656  0.0000E+00  0.4000E+00
    -11.577  0.0000E+00  0.4000E+00
    -11.498  0.0000E+00  0.4000E+00
    -11.420  0.0000E+00  0.4000E+00
    -11.341  0.0000E+00  0.4000E+00
    -11.262  0.0000E+00  0.4000E+00
    -11.184  0.2541E-14  0.4000E+00
    -11.105  0.2078E-12  0.4000E+00
    -11.026  0.1212E-10  0.4000E+00
    -10.948  0.5216E-09  0.4000E+00
    -10.869  0.1655E-07  0.4000E+00
    -10.791  0.3872E-06  0.4000E+00
    -10.712  0.6686E-05  0.4000E+00
    -10.633  0.8524E-04  0.4000E+00
    -10.555  0.8024E-03  0.4001E+00
    -10.476  0.5581E-02  0.4005E+00
    -10.397  0.2868E-01  0.4028E+00
    -10.319  0.1090E+00  0.4113E+00
    -10.240  0.3063E+00  0.4354E+00
    -10.162  0.6365E+00  0.4855E+00
    -10.083  0.9786E+00  0.5624E+00
    -10.004  0.1113E+01  0.6499E+00
     -9.926  0.9368E+00  0.7236E+00
     -9.847  0.5833E+00  0.7695E+00
     -9.768  0.2687E+00  0.7906E+00
     -9.690  0.9154E-01  0.7978E+00
     -9.611  0.2306E-01  0.7996E+00
     -9.532  0.4295E-02  0.7999E+00
     -9.454  0.5910E-03  0.8000E+00
     -9.375  0.6009E-04  0.8000E+00
     -9.297  0.4511E-05  0.8000E+00
     -9.218  0.2638E-06  0.8000E+00
     -9.139  0.3177E-06  0.8000E+00
     -9.061  0.5065E-05  0.8000E+00
     -8.982  0.6159E-04  0.8000E+00
     -8.903  0.5532E-03  0.8000E+00
     -8.825  0.3671E-02  0.8003E+00
     -8.746  0.1800E-01  0.8018E+00
     -8.668  0.6527E-01  0.8069E+00
     -8.589  0.1750E+00  0.8206E+00
     -8.510  0.3470E+00  0.8479E+00
     -8.432  0.5091E+00  0.8880E+00
     -8.353  0.5527E+00  0.9314E+00
     -8.274  0.4439E+00  0.9663E+00
     -8.196  0.2641E+00  0.9871E+00
     -8.117  0.1188E+00  0.9964E+00
     -8.038  0.5435E-01  0.1001E+01
     -7.960  0.7950E-01  0.1007E+01
     -7.881  0.2218E+00  0.1024E+01
     -7.803  0.5091E+00  0.1064E+01
     -7.724  0.8702E+00  0.1133E+01
     -7.645  0.1101E+01  0.1219E+01
     -7.567  0.1030E+01  0.1300E+01
     -7.488  0.7136E+00  0.1357E+01
     -7.409  0.3656E+00  0.1385E+01
     -7.331  0.1385E+00  0.1396E+01
     -7.252  0.3882E-01  0.1399E+01
     -7.174  0.8044E-02  0.1400E+01
     -7.095  0.1232E-02  0.1400E+01
     -7.016  0.1394E-03  0.1400E+01
     -6.938  0.1164E-04  0.1400E+01
     -6.859  0.7183E-06  0.1400E+01
     -6.780  0.3270E-07  0.1400E+01
     -6.702  0.1098E-08  0.1400E+01
     -6.623  0.2720E-10  0.1400E+01
     -6.544  0.4967E-12  0.1400E+01
     -6.466  0.6777E-14  0.1400E+01
     -6.387  0.0000E+00  0.1400E+01
     -6.309  0.0000E+00  0.1400E+01
     -6.230  0.0000E+00  0.1400E+01
     -6.151  0.0000E+00  0.1400E+01
     -6.073  0.0000E+00  0.1400E+01
     -5.994  0.0000E+00  0.1400E+01
     -5.915  0.0000E+00  0.1400E+01
     -5.837  0.0000E+00  0.1400E+01
     -5.758  0.0000E+00  0.1400E+01
     -5.679  0.0000E+00  0.1400E+01
     -5.601  0.0000E+00  0.1400E+01
     -5.522  0.0000E+00  0.1400E+01
     -5.444  0.0000E+00  0.1400E+01
     -5.365  0.0000E+00  0.1400E+01
     -5.286  0.0000E+00  0.1400E+01
     -5.208  0.0000E+00  0.1400E+01
     -5.129  0.0000E+00  0.1400E+01
     -5.050  0.0000E+00  0.1400E+01
     -4.972  0.0000E+00  0.1400E+01
     -4.893  0.0000E+00  0.1400E+01
     -4.815  0.0000E+00  0.1400E+01
     -4.736  0.0000E+00  0.1400E+01
     -4.657  0.0000E+00  0.1400E+01
     -4.579  0.0000E+00  0.1400E+01
     -4.500  0.0000E+00  0.1400E+01
     -4.421  0.0000E+00  0.1400E+01
     -4.343  0.0000E+00  0.1400E+01
     -4.264  0.0000E+00  0.1400E+01
     -4.185  0.0000E+00  0.1400E+01
     -4.107  0.0000E+00  0.1400E+01
     -4.028  0.0000E+00  0.1400E+01
     -3.950  0.0000E+00  0.1400E+01
     -3.871  0.0000E+00  0.1400E+01
     -3.792  0.0000E+00  0.1400E+01
     -3.714  0.0000E+00  0.1400E+01
     -3.635  0.0000E+00  0.1400E+01
     -3.556  0.0000E+00  0.1400E+01
     -3.478  0.0000E+00  0.1400E+01
     -3.399  0.0000E+00  0.1400E+01
     -3.321  0.0000E+00  0.1400E+01
     -3.242  0.0000E+00  0.1400E+01
     -3.163  0.0000E+00  0.1400E+01
     -3.085  0.0000E+00  0.1400E+01
     -3.006  0.0000E+00  0.1400E+01
     -2.927  0.0000E+00  0.1400E+01
     -2.849  0.0000E+00  0.1400E+01
     -2.770  0.0000E+00  0.1400E+01
     -2.691  0.0000E+00  0.1400E+01
     -2.613  0.0000E+00  0.1400E+01
     -2.534  0.0000E+00  0.1400E+01
     -2.456  0.0000E+00  0.1400E+01
     -2.377  0.0000E+00  0.1400E+01
     -2.298  0.0000E+00  0.1400E+01
     -2.220  0.0000E+00  0.1400E+01
     -2.141  0.0000E+00  0.1400E+01
     -2.062  0.0000E+00  0.1400E+01
     -1.984  0.0000E+00  0.1400E+01
     -1.905  0.0000E+00  0.1400E+01
     -1.827  0.0000E+00  0.1400E+01
     -1.748  0.1412E-15  0.1400E+01
     -1.669  0.1341E-13  0.1400E+01
     -1.591  0.9060E-12  0.1400E+01
     -1.512  0.4508E-10  0.1400E+01
     -1.433  0.1653E-08  0.1400E+01
     -1.355  0.4473E-07  0.1400E+01
     -1.276  0.8928E-06  0.1400E+01
     -1.197  0.1315E-04  0.1400E+01
     -1.119  0.1431E-03  0.1400E+01
     -1.040  0.1149E-02  0.1400E+01
     -0.962  0.6824E-02  0.1401E+01
     -0.883  0.2995E-01  0.1403E+01
     -0.804  0.9716E-01  0.1411E+01
     -0.726  0.2331E+00  0.1429E+01
     -0.647  0.4138E+00  0.1462E+01
     -0.568  0.5435E+00  0.1504E+01
     -0.490  0.5280E+00  0.1546E+01
     -0.411  0.3796E+00  0.1576E+01
     -0.333  0.2019E+00  0.1591E+01
     -0.254  0.7941E-01  0.1598E+01
     -0.175  0.2310E-01  0.1600E+01
     -0.097  0.4969E-02  0.1600E+01
     -0.018  0.7899E-03  0.1600E+01
      0.061  0.9279E-04  0.1600E+01
      0.139  0.8050E-05  0.1600E+01
      0.218  0.5156E-06  0.1600E+01
      0.297  0.2437E-07  0.1600E+01
      0.375  0.8546E-09  0.1600E+01
      0.454  0.2335E-09  0.1600E+01
      0.532  0.7253E-08  0.1600E+01
      0.611  0.1840E-06  0.1600E+01
      0.690  0.3459E-05  0.1600E+01
      0.768  0.4826E-04  0.1600E+01
      0.847  0.5000E-03  0.1600E+01
      0.926  0.3854E-02  0.1600E+01
      1.004  0.2214E-01  0.1602E+01
      1.083  0.9502E-01  0.1610E+01
      1.161  0.3056E+00  0.1634E+01
      1.240  0.7397E+00  0.1692E+01
      1.319  0.1356E+01  0.1798E+01
      1.397  0.1895E+01  0.1947E+01
      1.476  0.2040E+01  0.2108E+01
      1.555  0.1706E+01  0.2242E+01
      1.633  0.1116E+01  0.2330E+01
      1.712  0.5727E+00  0.2375E+01
      1.791  0.2300E+00  0.2393E+01
      1.869  0.7168E-01  0.2398E+01
      1.948  0.1717E-01  0.2400E+01
      2.026  0.3129E-02  0.2400E+01
      2.105  0.4303E-03  0.2400E+01
      2.184  0.4432E-04  0.2400E+01
      2.262  0.3404E-05  0.2400E+01
      2.341  0.1942E-06  0.2400E+01
      2.420  0.8213E-08  0.2400E+01
      2.498  0.2569E-09  0.2400E+01
      2.577  0.5936E-11  0.2400E+01
      2.655  0.1014E-12  0.2400E+01
      2.734  0.1130E-14  0.2400E+01
      2.813  0.0000E+00  0.2400E+01
      2.891  0.0000E+00  0.2400E+01
      2.970  0.0000E+00  0.2400E+01
      3.049  0.0000E+00  0.2400E+01
      3.127  0.0000E+00  0.2400E+01
      3.206  0.0000E+00  0.2400E+01
      3.285  0.0000E+00  0.2400E+01
      3.363  0.0000E+00  0.2400E+01
      3.442  0.0000E+00  0.2400E+01
      3.520  0.0000E+00  0.2400E+01
