    8    8   10    1
  0.6400000E+02  0.8000000E-09  0.8000000E-09  0.8000000E-09  0.5000000E-15
  1.000000000000000E-004
  CAR 
 unknown system                          
   14    1   12
 
  0.0000000E+00  0.0000000E+00  0.0000000E+00  0.1000000E+01
   1      -18.069163
   2      -14.529261
   3      -10.049403
   4      -10.049133
   5       -8.410213
   6       -7.662564
   7       -7.662559
   8       -0.575935
   9        1.363638
  10        1.388568
  11        1.423923
  12        1.520451
