       N       E                     dE             d eps       ncg     rms          rms(c)
DAV:   1     0.780650744549E+02    0.78065E+02   -0.35634E+03    24   0.636E+02
DAV:   2    -0.328531731498E+02   -0.11092E+03   -0.10991E+03    48   0.151E+02
DAV:   3    -0.454396812009E+02   -0.12587E+02   -0.12550E+02    32   0.664E+01
DAV:   4    -0.459922518297E+02   -0.55257E+00   -0.55208E+00    32   0.151E+01
DAV:   5    -0.460129712029E+02   -0.20719E-01   -0.20717E-01    28   0.274E+00    0.105E+01
DAV:   6    -0.415831708301E+02    0.44298E+01   -0.84406E+00    28   0.170E+01    0.478E+00
DAV:   7    -0.407145023304E+02    0.86867E+00   -0.26384E+00    28   0.876E+00    0.239E+00
DAV:   8    -0.404927874359E+02    0.22171E+00   -0.45811E-01    24   0.446E+00    0.677E-01
DAV:   9    -0.404748949265E+02    0.17893E-01   -0.55363E-02    32   0.143E+00    0.323E-01
DAV:  10    -0.404825036701E+02   -0.76087E-02   -0.92826E-02    32   0.168E+00    0.380E-01
DAV:  11    -0.404782985638E+02    0.42051E-02   -0.17149E-02    24   0.758E-01    0.105E-01
DAV:  12    -0.404847992402E+02   -0.65007E-02   -0.24888E-03    24   0.359E-01    0.633E-02
DAV:  13    -0.404877595495E+02   -0.29603E-02   -0.15209E-03    24   0.203E-01    0.356E-02
DAV:  14    -0.404891955065E+02   -0.14360E-02   -0.32923E-04    32   0.101E-01    0.263E-02
DAV:  15    -0.404893795740E+02   -0.18407E-03   -0.12129E-04    32   0.692E-02    0.713E-03
DAV:  16    -0.404895293313E+02   -0.14976E-03   -0.22187E-05    32   0.270E-02    0.214E-03
DAV:  17    -0.404895426975E+02   -0.13366E-04   -0.11012E-06    32   0.627E-03
   1 F= -.40489543E+02 E0= -.40489543E+02  d E =-.404895E+02
       N       E                     dE             d eps       ncg     rms          rms(c)
DAV:   1    -0.404908206218E+02   -0.12913E-02   -0.54596E-01    28   0.615E+00    0.314E-01
DAV:   2    -0.404887918134E+02    0.20288E-02   -0.94365E-03    24   0.678E-01    0.162E-01
DAV:   3    -0.404882773722E+02    0.51444E-03   -0.41666E-03    32   0.359E-01    0.484E-02
DAV:   4    -0.404882580424E+02    0.19330E-04   -0.42907E-04    28   0.115E-01
   2 F= -.40488258E+02 E0= -.40488258E+02  d E =0.128466E-02
       N       E                     dE             d eps       ncg     rms          rms(c)
DAV:   1    -0.404936366097E+02   -0.53592E-02   -0.15575E-01    32   0.327E+00    0.165E-01
DAV:   2    -0.404931553936E+02    0.48122E-03   -0.27391E-03    24   0.361E-01    0.882E-02
DAV:   3    -0.404930282740E+02    0.12712E-03   -0.13122E-03    28   0.201E-01    0.270E-02
DAV:   4    -0.404930103871E+02    0.17887E-04   -0.13850E-04    32   0.651E-02
   3 F= -.40493010E+02 E0= -.40493010E+02  d E =-.346769E-02
       N       E                     dE             d eps       ncg     rms          rms(c)
DAV:   1    -0.404944671510E+02   -0.14389E-02   -0.33428E-01    24   0.459E+00    0.147E-01
DAV:   2    -0.404938987828E+02    0.56837E-03   -0.27140E-03    24   0.443E-01    0.833E-02
DAV:   3    -0.404938386496E+02    0.60133E-04   -0.26481E-03    24   0.304E-01    0.426E-02
DAV:   4    -0.404937743803E+02    0.64269E-04   -0.31784E-04    24   0.106E-01
   4 F= -.40493774E+02 E0= -.40493774E+02  d E =-.763993E-03
       N       E                     dE             d eps       ncg     rms          rms(c)
DAV:   1    -0.404943667977E+02   -0.52815E-03   -0.48368E-02    24   0.174E+00    0.616E-02
DAV:   2    -0.404942496067E+02    0.11719E-03   -0.42497E-04    24   0.172E-01    0.328E-02
DAV:   3    -0.404942389793E+02    0.10627E-04   -0.40844E-04    28   0.120E-01
   5 F= -.40494239E+02 E0= -.40494239E+02  d E =-.122859E-02
