<?xml version="1.0" encoding="ISO-8859-1"?>
<modeling>
 <generator>
  <i name="program" type="string">vasp </i>
  <i name="version" type="string">5.2.12  </i>
  <i name="subversion" type="string">11Nov11 complex                                                      parallel </i>
  <i name="platform" type="string">LinuxIFC </i>
  <i name="date" type="string">2012 11 03 </i>
  <i name="time" type="string">00:25:02 </i>
 </generator>
 <incar>
  <i type="string" name="PREC">normal</i>
  <i type="int" name="IBRION">     2</i>
  <i type="int" name="NSW">    10</i>
  <i name="ENCUT">    450.00000000</i>
  <i type="int" name="ISMEAR">     0</i>
 </incar>
 <kpoints>
  <generation param="Monkhorst-Pack">
   <v type="int" name="divisions">       1        1        1 </v>
   <v name="usershift">      0.00000000       0.00000000       0.00000000 </v>
   <v name="genvec1">      1.00000000       0.00000000       0.00000000 </v>
   <v name="genvec2">      0.00000000       1.00000000       0.00000000 </v>
   <v name="genvec3">      0.00000000       0.00000000       1.00000000 </v>
   <v name="shift">      0.00000000       0.00000000       0.00000000 </v>
  </generation>
  <varray name="kpointlist" >
   <v>       0.00000000       0.00000000       0.00000000 </v>
  </varray>
  <varray name="weights" >
   <v>       1.00000000 </v>
  </varray>
 </kpoints>
 <parameters>
  <separator name="general" >
   <i type="string" name="SYSTEM">unknown system</i>
   <i type="logical" name="LCOMPAT"> F  </i>
  </separator>
  <separator name="electronic" >
   <i type="string" name="PREC">normal</i>
   <i name="ENMAX">    450.00000000</i>
   <i name="ENAUG">    644.87300000</i>
   <i name="EDIFF">      0.00010000</i>
   <i type="int" name="IALGO">    38</i>
   <i type="int" name="IWAVPR">    11</i>
   <i type="int" name="NBANDS">    12</i>
   <i name="NELECT">     14.00000000</i>
   <i type="int" name="TURBO">     0</i>
   <i type="int" name="IRESTART">     0</i>
   <i type="int" name="NREBOOT">     0</i>
   <i type="int" name="NMIN">     0</i>
   <i name="EREF">      0.00000000</i>
   <separator name="electronic smearing" >
    <i type="int" name="ISMEAR">     0</i>
    <i name="SIGMA">      0.20000000</i>
    <i name="KSPACING">      0.50000000</i>
    <i type="logical" name="KGAMMA"> T  </i>
   </separator>
   <separator name="electronic projectors" >
    <i type="logical" name="LREAL"> F  </i>
    <v name="ROPT">      0.00000000      0.00000000</v>
    <i type="int" name="LMAXPAW">  -100</i>
    <i type="int" name="LMAXMIX">     2</i>
    <i type="logical" name="NLSPLINE"> F  </i>
   </separator>
   <separator name="electronic startup" >
    <i type="int" name="ISTART">     0</i>
    <i type="int" name="ICHARG">     2</i>
    <i type="int" name="INIWAV">     1</i>
   </separator>
   <separator name="electronic spin" >
    <i type="int" name="ISPIN">     1</i>
    <i type="logical" name="LNONCOLLINEAR"> F  </i>
    <v name="MAGMOM">      1.00000000      1.00000000      1.00000000      1.00000000      1.00000000      1.00000000      1.00000000      1.00000000</v>
    <i name="NUPDOWN">     -1.00000000</i>
    <i type="logical" name="LSORBIT"> F  </i>
    <v name="SAXIS">      0.00000000      0.00000000      1.00000000</v>
    <i type="logical" name="LSPIRAL"> F  </i>
    <v name="QSPIRAL">      0.00000000      0.00000000      0.00000000</v>
    <i type="logical" name="LZEROZ"> F  </i>
   </separator>
   <separator name="electronic exchange-correlation" >
    <i type="logical" name="LASPH"> F  </i>
    <i type="logical" name="LMETAGGA"> F  </i>
   </separator>
   <separator name="electronic convergence" >
    <i type="int" name="NELM">    60</i>
    <i type="int" name="NELMDL">    -5</i>
    <i type="int" name="NELMIN">     2</i>
    <i name="ENINI">    450.00000000</i>
    <separator name="electronic convergence detail" >
     <i type="logical" name="LDIAG"> T  </i>
     <i type="logical" name="LSUBROT"> T  </i>
     <i name="WEIMIN">      0.00100000</i>
     <i name="EBREAK">      0.00000208</i>
     <i name="DEPER">      0.30000000</i>
     <i type="int" name="NRMM">     4</i>
     <i name="TIME">      0.40000000</i>
    </separator>
   </separator>
   <separator name="electronic mixer" >
    <i name="AMIX">      0.40000000</i>
    <i name="BMIX">      1.00000000</i>
    <i name="AMIN">      0.10000000</i>
    <i name="AMIX_MAG">      1.60000000</i>
    <i name="BMIX_MAG">      1.00000000</i>
    <separator name="electronic mixer details" >
     <i type="int" name="IMIX">     4</i>
     <i type="int" name="MAXMIX">   -45</i>
     <i name="WC">    100.00000000</i>
     <i type="int" name="INIMIX">     1</i>
     <i type="int" name="MIXPRE">     1</i>
     <i type="int" name="MREMOVE">     5</i>
    </separator>
   </separator>
   <separator name="electronic dipolcorrection" >
    <i type="logical" name="LDIPOL"> F  </i>
    <i type="logical" name="LMONO"> F  </i>
    <i type="int" name="IDIPOL">     0</i>
    <i name="EPSILON">      1.00000000</i>
    <v name="DIPOL">   -100.00000000   -100.00000000   -100.00000000</v>
    <i name="EFIELD">      0.00000000</i>
   </separator>
  </separator>
  <separator name="grids" >
   <i type="int" name="NGX">    42</i>
   <i type="int" name="NGY">    42</i>
   <i type="int" name="NGZ">    42</i>
   <i type="int" name="NGXF">    84</i>
   <i type="int" name="NGYF">    84</i>
   <i type="int" name="NGZF">    84</i>
   <i type="logical" name="ADDGRID"> F  </i>
  </separator>
  <separator name="ionic" >
   <i type="int" name="NSW">    10</i>
   <i type="int" name="IBRION">     2</i>
   <i type="int" name="ISIF">     2</i>
   <i name="PSTRESS">      0.00000000</i>
   <i name="EDIFFG">      0.00100000</i>
   <i type="int" name="NFREE">     1</i>
   <i name="POTIM">      0.50000000</i>
   <i name="SMASS">     -3.00000000</i>
   <i name="SCALEE">      1.00000000</i>
  </separator>
  <separator name="ionic md" >
   <i name="TEBEG">      0.00010000</i>
   <i name="TEEND">      0.00010000</i>
   <i type="int" name="NBLOCK">     1</i>
   <i type="int" name="KBLOCK">    10</i>
   <i type="int" name="NPACO">   256</i>
   <i name="APACO">     16.00000000</i>
  </separator>
  <separator name="symmetry" >
   <i type="int" name="ISYM">     2</i>
   <i name="SYMPREC">      0.00001000</i>
  </separator>
  <separator name="dos" >
   <i type="logical" name="LORBIT"> F  </i>
   <v name="RWIGS">     -1.00000000     -1.00000000</v>
   <i type="int" name="NEDOS">   301</i>
   <i name="EMIN">     10.00000000</i>
   <i name="EMAX">    -10.00000000</i>
   <i name="EFERMI">      0.00000000</i>
  </separator>
  <separator name="writing" >
   <i type="int" name="NWRITE">     2</i>
   <i type="logical" name="LWAVE"> T  </i>
   <i type="logical" name="LCHARG"> T  </i>
   <i type="logical" name="LPARD"> F  </i>
   <i type="logical" name="LVTOT"> F  </i>
   <i type="logical" name="LVHAR"> F  </i>
   <i type="logical" name="LELF"> F  </i>
   <i type="logical" name="LOPTICS"> F  </i>
   <v name="STM">      0.00000000      0.00000000      0.00000000      0.00000000      0.00000000      0.00000000      0.00000000</v>
  </separator>
  <separator name="performance" >
   <i type="int" name="NPAR">     1</i>
   <i type="int" name="NSIM">     4</i>
   <i type="int" name="NBLK">    -1</i>
   <i type="logical" name="LPLANE"> T  </i>
   <i type="logical" name="LSCALAPACK"> F  </i>
   <i type="logical" name="LSCAAWARE"> F  </i>
   <i type="logical" name="LSCALU"> F  </i>
   <i type="logical" name="LASYNC"> F  </i>
   <i type="logical" name="LORBITALREAL"> F  </i>
  </separator>
  <separator name="miscellaneous" >
   <i type="int" name="IDIOT">     3</i>
   <i type="logical" name="LMUSIC"> F  </i>
   <v name="POMASS">      1.00000000     12.01100000</v>
   <v name="DARWINR">      0.00000000      0.00000000</v>
   <v name="DARWINV">      1.00000000      1.00000000</v>
   <i type="logical" name="LCORR"> T  </i>
  </separator>
  <i type="logical" name="GGA_COMPAT"> T  </i>
  <i type="logical" name="LBERRY"> F  </i>
  <i type="int" name="ICORELEVEL">     0</i>
  <i type="logical" name="LDAU"> F  </i>
  <i type="int" name="I_CONSTRAINED_M">     0</i>
  <separator name="electronic exchange-correlation" >
   <i type="string" name="GGA">--</i>
   <i type="int" name="VOSKOWN">     0</i>
   <i type="logical" name="LHFCALC"> F  </i>
   <i type="string" name="PRECFOCK"></i>
   <i type="logical" name="LHFONE"> F  </i>
   <i type="logical" name="LRHFCALC"> F  </i>
   <i type="logical" name="LTHOMAS"> F  </i>
   <i type="logical" name="LMODELHF"> F  </i>
   <i name="ENCUT4O">     -1.00000000</i>
   <i type="int" name="EXXOEP">     0</i>
   <i type="int" name="FOURORBIT">     0</i>
   <i name="AEXX">      0.00000000</i>
   <i name="HFALPHA">      0.00000000</i>
   <i name="ALDAX">      1.00000000</i>
   <i name="AGGAX">      1.00000000</i>
   <i name="ALDAC">      1.00000000</i>
   <i name="AGGAC">      1.00000000</i>
   <i type="int" name="NKREDX">     1</i>
   <i type="int" name="NKREDY">     1</i>
   <i type="int" name="NKREDZ">     1</i>
   <i type="logical" name="SHIFTRED"> F  </i>
   <i type="logical" name="ODDONLY"> F  </i>
   <i type="logical" name="EVENONLY"> F  </i>
   <i type="int" name="LMAXFOCK">     0</i>
   <i type="int" name="NMAXFOCKAE">     0</i>
   <i type="logical" name="LFOCKAEDFT"> F  </i>
   <i name="HFSCREEN">      0.00000000</i>
   <i name="HFSCREENC">      0.00000000</i>
  </separator>
  <separator name="vdW DFT" >
   <i type="logical" name="LUSE_VDW"> F  </i>
   <i name="Zab_VDW">     -0.84910000</i>
   <i name="PARAM1">      0.12340000</i>
   <i name="PARAM2">      1.00000000</i>
   <i name="PARAM3">      0.00000000</i>
  </separator>
  <separator name="model GW" >
   <i type="int" name="MODEL_GW">     0</i>
   <i name="MODEL_EPS0">     38.40000000</i>
   <i name="MODEL_ALPHA">      1.00000000</i>
  </separator>
  <separator name="linear response parameters" >
   <i type="logical" name="LEPSILON"> F  </i>
   <i type="logical" name="LRPA"> F  </i>
   <i type="logical" name="LNABLA"> F  </i>
   <i type="logical" name="LVEL"> F  </i>
   <i type="int" name="KINTER">     0</i>
   <i name="CSHIFT">      0.10000000</i>
   <i name="OMEGAMAX">     -1.00000000</i>
  </separator>
  <separator name="orbital magnetization" >
   <i type="logical" name="NUCIND"> F  </i>
   <v name="MAGPOS">      0.00000000      0.00000000      0.00000000</v>
   <i type="logical" name="LNICSALL"> T  </i>
   <i type="logical" name="ORBITALMAG"> F  </i>
   <i type="logical" name="LMAGBLOCH"> F  </i>
   <i type="logical" name="LCHIMAG"> F  </i>
   <i type="logical" name="LGAUGE"> T  </i>
   <i type="int" name="MAGATOM">     0</i>
   <v name="MAGDIPOL">      0.00000000      0.00000000      0.00000000</v>
   <v name="AVECCONST">      0.00000000      0.00000000      0.00000000</v>
  </separator>
  <separator name="response functions" >
   <i type="logical" name="LADDER"> F  </i>
   <i type="logical" name="LHARTREE"> T  </i>
   <i type="int" name="IBSE">     0</i>
   <i type="logical" name="LTCTE"> F  </i>
   <i type="logical" name="LTETE"> F  </i>
   <i type="logical" name="LFXCEPS"> F  </i>
   <i type="logical" name="L2ORDER"> F  </i>
   <i type="logical" name="LUSEW"> F  </i>
   <i name="ENCUTGW">     -2.00000000</i>
   <i name="ENCUTGWSOFT">     -2.00000000</i>
   <i name="ENCUTLF">     -1.00000000</i>
   <i type="int" name="LMAXMP2">    -1</i>
   <i name="SCISSOR">      0.00000000</i>
   <i type="int" name="NOMEGA">     0</i>
   <i type="int" name="NOMEGAR">     0</i>
   <i type="int" name="NBANDSGW">    -1</i>
   <i type="int" name="NBANDSO">    -1</i>
   <i type="int" name="NBANDSV">    -1</i>
   <i name="OPTEMAX">      0.00000000</i>
   <i type="int" name="NELM">     1</i>
   <i type="int" name="DIM">     3</i>
   <i type="int" name="ANTIRES">     0</i>
   <i name="OMEGAMAX">    -30.00000000</i>
   <i name="OMEGATL">   -200.00000000</i>
   <i type="int" name="OMEGAGRID">     0</i>
   <i name="CSHIFT">     -0.10000000</i>
   <i type="logical" name="SELFENERGY"> F  </i>
   <i type="logical" name="LSPECTRAL"> F  </i>
   <i type="logical" name="ODDONLYGW"> F  </i>
   <i type="logical" name="EVENONLYGW"> F  </i>
   <i type="int" name="NKREDLFX">     1</i>
   <i type="int" name="NKREDLFY">     1</i>
   <i type="int" name="NKREDLFZ">     1</i>
   <i type="int" name="MAXMEM">  1800</i>
   <i type="int" name="TELESCOPE">     0</i>
  </separator>
 </parameters>
 <atominfo>
  <atoms>       8 </atoms>
  <types>       2 </types>
  <array name="atoms" >
   <dimension dim="1">ion</dimension>
   <field type="string">element</field>
   <field type="int">atomtype</field>
   <set>
    <rc><c>H </c><c>   1</c></rc>
    <rc><c>H </c><c>   1</c></rc>
    <rc><c>H </c><c>   1</c></rc>
    <rc><c>H </c><c>   1</c></rc>
    <rc><c>H </c><c>   1</c></rc>
    <rc><c>H </c><c>   1</c></rc>
    <rc><c>C </c><c>   2</c></rc>
    <rc><c>C </c><c>   2</c></rc>
   </set>
  </array>
  <array name="atomtypes" >
   <dimension dim="1">type</dimension>
   <field type="int">atomspertype</field>
   <field type="string">element</field>
   <field>mass</field>
   <field>valence</field>
   <field type="string">pseudopotential</field>
   <set>
    <rc><c>   6</c><c>H </c><c>      1.00000000</c><c>      1.00000000</c><c> PAW_PBE H 15Jun2001                    </c></rc>
    <rc><c>   2</c><c>C </c><c>     12.01100000</c><c>      4.00000000</c><c> PAW_PBE C 08Apr2002                    </c></rc>
   </set>
  </array>
 </atominfo>
 <structure name="initialpos" >
  <crystal>
   <varray name="basis" >
    <v>       8.00000000       0.00000000       0.00000000 </v>
    <v>       0.00000000       8.00000000       0.00000000 </v>
    <v>       0.00000000       0.00000000       8.00000000 </v>
   </varray>
   <i name="volume">    512.00000000 </i>
   <varray name="rec_basis" >
    <v>       0.12500000       0.00000000       0.00000000 </v>
    <v>       0.00000000       0.12500000       0.00000000 </v>
    <v>       0.00000000       0.00000000       0.12500000 </v>
   </varray>
  </crystal>
  <varray name="positions" >
   <v>       0.00000000       0.12736963       0.14465362 </v>
   <v>       0.88969462       0.93631513       0.14465362 </v>
   <v>       0.11030538       0.93631513       0.14465362 </v>
   <v>       0.00000000       0.87263037       0.85534638 </v>
   <v>       0.88969462       0.06368487       0.85534638 </v>
   <v>       0.11030538       0.06368487       0.85534638 </v>
   <v>       0.00000000       0.00000000       0.09527612 </v>
   <v>       0.00000000       0.00000000       0.90472388 </v>
  </varray>
 </structure>
 <calculation>
  <scstep>
   <time name="dav">    0.62    0.62</time>
   <time name="total">    1.59    1.59</time>
   <energy>
    <i name="alphaZ">      1.51367591 </i>
    <i name="ewald">    238.82698518 </i>
    <i name="hartreedc">   -467.83007563 </i>
    <i name="XCdc">     41.11769124 </i>
    <i name="pawpsdc">     80.35084045 </i>
    <i name="pawaedc">    -82.70584614 </i>
    <i name="eentropy">     -0.00007257 </i>
    <i name="bandstr">   -102.40026724 </i>
    <i name="atom">    369.19214326 </i>
    <i name="e_fr_energy">     78.06507445 </i>
    <i name="e_wo_entrp">     78.06514702 </i>
    <i name="e_0_energy">     78.06511074 </i>
   </energy>
  </scstep>
  <scstep>
   <time name="dav">    1.04    1.05</time>
   <time name="total">    1.05    1.05</time>
   <energy>
    <i name="e_fr_energy">    -32.85317315 </i>
    <i name="e_wo_entrp">    -32.85317315 </i>
    <i name="e_0_energy">    -32.85317315 </i>
   </energy>
  </scstep>
  <scstep>
   <time name="dav">    0.75    0.75</time>
   <time name="total">    0.76    0.77</time>
   <energy>
    <i name="e_fr_energy">    -45.43968120 </i>
    <i name="e_wo_entrp">    -45.43968120 </i>
    <i name="e_0_energy">    -45.43968120 </i>
   </energy>
  </scstep>
  <scstep>
   <time name="dav">    0.75    0.75</time>
   <time name="total">    0.75    0.77</time>
   <energy>
    <i name="e_fr_energy">    -45.99225183 </i>
    <i name="e_wo_entrp">    -45.99225183 </i>
    <i name="e_0_energy">    -45.99225183 </i>
   </energy>
  </scstep>
  <scstep>
   <time name="dav">    0.68    0.68</time>
   <time name="total">    0.84    0.85</time>
   <energy>
    <i name="e_fr_energy">    -46.01297120 </i>
    <i name="e_wo_entrp">    -46.01297120 </i>
    <i name="e_0_energy">    -46.01297120 </i>
   </energy>
  </scstep>
  <scstep>
   <time name="dav">    0.68    0.68</time>
   <time name="total">    1.79    1.80</time>
   <energy>
    <i name="e_fr_energy">    -41.58317083 </i>
    <i name="e_wo_entrp">    -41.58317083 </i>
    <i name="e_0_energy">    -41.58317083 </i>
   </energy>
  </scstep>
  <scstep>
   <time name="dav">    0.68    0.68</time>
   <time name="total">    1.78    1.80</time>
   <energy>
    <i name="e_fr_energy">    -40.71450233 </i>
    <i name="e_wo_entrp">    -40.71450233 </i>
    <i name="e_0_energy">    -40.71450233 </i>
   </energy>
  </scstep>
  <scstep>
   <time name="dav">    0.60    0.61</time>
   <time name="total">    1.71    1.73</time>
   <energy>
    <i name="e_fr_energy">    -40.49278744 </i>
    <i name="e_wo_entrp">    -40.49278744 </i>
    <i name="e_0_energy">    -40.49278744 </i>
   </energy>
  </scstep>
  <scstep>
   <time name="dav">    0.75    0.75</time>
   <time name="total">    1.86    1.87</time>
   <energy>
    <i name="e_fr_energy">    -40.47489493 </i>
    <i name="e_wo_entrp">    -40.47489493 </i>
    <i name="e_0_energy">    -40.47489493 </i>
   </energy>
  </scstep>
  <scstep>
   <time name="dav">    0.75    0.75</time>
   <time name="total">    1.86    1.87</time>
   <energy>
    <i name="e_fr_energy">    -40.48250367 </i>
    <i name="e_wo_entrp">    -40.48250367 </i>
    <i name="e_0_energy">    -40.48250367 </i>
   </energy>
  </scstep>
  <scstep>
   <time name="dav">    0.60    0.60</time>
   <time name="total">    1.70    1.71</time>
   <energy>
    <i name="e_fr_energy">    -40.47829856 </i>
    <i name="e_wo_entrp">    -40.47829856 </i>
    <i name="e_0_energy">    -40.47829856 </i>
   </energy>
  </scstep>
  <scstep>
   <time name="dav">    0.60    0.60</time>
   <time name="total">    1.67    1.68</time>
   <energy>
    <i name="e_fr_energy">    -40.48479924 </i>
    <i name="e_wo_entrp">    -40.48479924 </i>
    <i name="e_0_energy">    -40.48479924 </i>
   </energy>
  </scstep>
  <scstep>
   <time name="dav">    0.60    0.60</time>
   <time name="total">    1.67    1.68</time>
   <energy>
    <i name="e_fr_energy">    -40.48775955 </i>
    <i name="e_wo_entrp">    -40.48775955 </i>
    <i name="e_0_energy">    -40.48775955 </i>
   </energy>
  </scstep>
  <scstep>
   <time name="dav">    0.75    0.75</time>
   <time name="total">    1.82    1.83</time>
   <energy>
    <i name="e_fr_energy">    -40.48919551 </i>
    <i name="e_wo_entrp">    -40.48919551 </i>
    <i name="e_0_energy">    -40.48919551 </i>
   </energy>
  </scstep>
  <scstep>
   <time name="dav">    0.75    0.75</time>
   <time name="total">    1.82    1.83</time>
   <energy>
    <i name="e_fr_energy">    -40.48937957 </i>
    <i name="e_wo_entrp">    -40.48937957 </i>
    <i name="e_0_energy">    -40.48937957 </i>
   </energy>
  </scstep>
  <scstep>
   <time name="dav">    0.75    0.75</time>
   <time name="total">    1.84    1.84</time>
   <energy>
    <i name="e_fr_energy">    -40.48952933 </i>
    <i name="e_wo_entrp">    -40.48952933 </i>
    <i name="e_0_energy">    -40.48952933 </i>
   </energy>
  </scstep>
  <scstep>
   <time name="dav">    0.75    0.75</time>
   <time name="total">    1.68    1.69</time>
   <energy>
    <i name="alphaZ">      1.51367591 </i>
    <i name="ewald">    238.82698518 </i>
    <i name="hartreedc">   -539.45372007 </i>
    <i name="XCdc">     45.52029430 </i>
    <i name="pawpsdc">    168.97631177 </i>
    <i name="pawaedc">   -171.72883234 </i>
    <i name="eentropy">      0.00000000 </i>
    <i name="bandstr">   -153.33640071 </i>
    <i name="atom">    369.19214326 </i>
    <i name="e_fr_energy">    -40.48954270 </i>
    <i name="e_wo_entrp">    -40.48954270 </i>
    <i name="e_0_energy">    -40.48954270 </i>
   </energy>
  </scstep>
  <parameters_embedded>
   <separator name="dft+d2" >
    <i type="logical" name="LVDW"> F  </i>
   </separator>
  </parameters_embedded>
  <structure>
   <crystal>
    <varray name="basis" >
     <v>       8.00000000       0.00000000       0.00000000 </v>
     <v>       0.00000000       8.00000000       0.00000000 </v>
     <v>       0.00000000       0.00000000       8.00000000 </v>
    </varray>
    <i name="volume">    512.00000000 </i>
    <varray name="rec_basis" >
     <v>       0.12500000       0.00000000       0.00000000 </v>
     <v>       0.00000000       0.12500000       0.00000000 </v>
     <v>       0.00000000       0.00000000       0.12500000 </v>
    </varray>
   </crystal>
   <varray name="positions" >
    <v>       0.00000000       0.12736963       0.14465362 </v>
    <v>       0.88969462       0.93631513       0.14465362 </v>
    <v>       0.11030538       0.93631513       0.14465362 </v>
    <v>       0.00000000       0.87263037       0.85534638 </v>
    <v>       0.88969462       0.06368487       0.85534638 </v>
    <v>       0.11030538       0.06368487       0.85534638 </v>
    <v>       0.00000000       0.00000000       0.09527612 </v>
    <v>       0.00000000       0.00000000       0.90472388 </v>
   </varray>
  </structure>
  <varray name="forces" >
   <v>       0.00000000       0.19066391       0.10651826 </v>
   <v>      -0.16487406      -0.09455653       0.10614718 </v>
   <v>       0.16487406      -0.09455653       0.10614718 </v>
   <v>       0.00000000      -0.19066391      -0.10651826 </v>
   <v>      -0.16487406       0.09455653      -0.10614718 </v>
   <v>       0.16487406       0.09455653      -0.10614718 </v>
   <v>       0.00000000       0.00056730      -0.12318729 </v>
   <v>       0.00000000      -0.00056730       0.12318729 </v>
  </varray>
  <varray name="stress" >
   <v>       1.14144471       0.00000000       0.00000000 </v>
   <v>       0.00000000       1.13386425       0.00517600 </v>
   <v>       0.00000000       0.00517656       0.75267015 </v>
  </varray>
  <energy>
   <i name="e_fr_energy">    -40.48954270 </i>
   <i name="e_wo_entrp">    -40.48954270 </i>
   <i name="e_0_energy">      0.00000000 </i>
  </energy>
  <time name="totalsc">   29.64   30.04</time>
 </calculation>
 <calculation>
  <scstep>
   <time name="dav">    0.74    0.74</time>
   <time name="total">    2.00    2.00</time>
   <energy>
    <i name="alphaZ">      1.51367591 </i>
    <i name="ewald">    235.52831744 </i>
    <i name="hartreedc">   -537.65328366 </i>
    <i name="XCdc">     45.42041372 </i>
    <i name="pawpsdc">    168.97725327 </i>
    <i name="pawaedc">   -171.72970894 </i>
    <i name="eentropy">      0.00000000 </i>
    <i name="bandstr">   -151.73963161 </i>
    <i name="atom">    369.19214326 </i>
    <i name="e_fr_energy">    -40.49082062 </i>
    <i name="e_wo_entrp">    -40.49082062 </i>
    <i name="e_0_energy">    -40.49082062 </i>
   </energy>
  </scstep>
  <scstep>
   <time name="dav">    0.67    0.67</time>
   <time name="total">    1.88    1.89</time>
   <energy>
    <i name="e_fr_energy">    -40.48879181 </i>
    <i name="e_wo_entrp">    -40.48879181 </i>
    <i name="e_0_energy">    -40.48879181 </i>
   </energy>
  </scstep>
  <scstep>
   <time name="dav">    0.84    0.84</time>
   <time name="total">    2.04    2.05</time>
   <energy>
    <i name="e_fr_energy">    -40.48827737 </i>
    <i name="e_wo_entrp">    -40.48827737 </i>
    <i name="e_0_energy">    -40.48827737 </i>
   </energy>
  </scstep>
  <scstep>
   <time name="dav">    0.75    0.75</time>
   <time name="total">    1.77    1.83</time>
   <energy>
    <i name="alphaZ">      1.51367591 </i>
    <i name="ewald">    235.52831744 </i>
    <i name="hartreedc">   -536.57605379 </i>
    <i name="XCdc">     45.35644077 </i>
    <i name="pawpsdc">    166.05878972 </i>
    <i name="pawaedc">   -168.79625917 </i>
    <i name="eentropy">      0.00000000 </i>
    <i name="bandstr">   -152.76531218 </i>
    <i name="atom">    369.19214326 </i>
    <i name="e_fr_energy">    -40.48825804 </i>
    <i name="e_wo_entrp">    -40.48825804 </i>
    <i name="e_0_energy">    -40.48825804 </i>
   </energy>
  </scstep>
  <structure>
   <crystal>
    <varray name="basis" >
     <v>       8.00000000       0.00000000       0.00000000 </v>
     <v>       0.00000000       8.00000000       0.00000000 </v>
     <v>       0.00000000       0.00000000       8.00000000 </v>
    </varray>
    <i name="volume">    512.00000000 </i>
    <varray name="rec_basis" >
     <v>       0.12500000       0.00000000       0.00000000 </v>
     <v>       0.00000000       0.12500000       0.00000000 </v>
     <v>       0.00000000       0.00000000       0.12500000 </v>
    </varray>
   </crystal>
   <varray name="positions" >
    <v>       0.00000000       0.12851939       0.14529597 </v>
    <v>       0.88870038       0.93574492       0.14529373 </v>
    <v>       0.11129962       0.93574492       0.14529373 </v>
    <v>       0.00000000       0.87148061       0.85470403 </v>
    <v>       0.88870038       0.06425508       0.85470627 </v>
    <v>       0.11129962       0.06425508       0.85470627 </v>
    <v>       0.00000000       0.00000342       0.09453326 </v>
    <v>       0.00000000      -0.00000342       0.90546674 </v>
   </varray>
  </structure>
  <varray name="forces" >
   <v>       0.00000000      -0.16090473      -0.04687225 </v>
   <v>       0.14027406       0.08162619      -0.04729720 </v>
   <v>      -0.14027406       0.08162619      -0.04729720 </v>
   <v>       0.00000000       0.16090473       0.04687225 </v>
   <v>       0.14027406      -0.08162619       0.04729720 </v>
   <v>      -0.14027406      -0.08162619       0.04729720 </v>
   <v>       0.00000000       0.00023506       0.56153018 </v>
   <v>       0.00000000      -0.00023506      -0.56153018 </v>
  </varray>
  <varray name="stress" >
   <v>      -2.27047936       0.00000000       0.00000000 </v>
   <v>       0.00000000      -2.27576357       0.00387293 </v>
   <v>       0.00000000       0.00387241       0.62468966 </v>
  </varray>
  <energy>
   <i name="e_fr_energy">    -40.48825804 </i>
   <i name="e_wo_entrp">    -40.48825804 </i>
   <i name="e_0_energy">      0.00000000 </i>
  </energy>
  <time name="totalsc">   10.25   10.35</time>
 </calculation>
 <calculation>
  <scstep>
   <time name="dav">    0.83    0.83</time>
   <time name="total">    2.04    2.05</time>
   <energy>
    <i name="alphaZ">      1.51367591 </i>
    <i name="ewald">    237.25868162 </i>
    <i name="hartreedc">   -537.45739188 </i>
    <i name="XCdc">     45.40379659 </i>
    <i name="pawpsdc">    165.77319720 </i>
    <i name="pawaedc">   -168.51030914 </i>
    <i name="eentropy">      0.00000000 </i>
    <i name="bandstr">   -153.66743017 </i>
    <i name="atom">    369.19214326 </i>
    <i name="e_fr_energy">    -40.49363661 </i>
    <i name="e_wo_entrp">    -40.49363661 </i>
    <i name="e_0_energy">    -40.49363661 </i>
   </energy>
  </scstep>
  <scstep>
   <time name="dav">    0.74    0.74</time>
   <time name="total">    2.12    2.12</time>
   <energy>
    <i name="e_fr_energy">    -40.49315539 </i>
    <i name="e_wo_entrp">    -40.49315539 </i>
    <i name="e_0_energy">    -40.49315539 </i>
   </energy>
  </scstep>
  <scstep>
   <time name="dav">    0.83    0.83</time>
   <time name="total">    2.23    2.24</time>
   <energy>
    <i name="e_fr_energy">    -40.49302827 </i>
    <i name="e_wo_entrp">    -40.49302827 </i>
    <i name="e_0_energy">    -40.49302827 </i>
   </energy>
  </scstep>
  <scstep>
   <time name="dav">    0.92    0.92</time>
   <time name="total">    2.11    2.12</time>
   <energy>
    <i name="alphaZ">      1.51367591 </i>
    <i name="ewald">    237.25868162 </i>
    <i name="hartreedc">   -538.02510138 </i>
    <i name="XCdc">     45.43811153 </i>
    <i name="pawpsdc">    167.30854391 </i>
    <i name="pawaedc">   -170.05359048 </i>
    <i name="eentropy">      0.00000000 </i>
    <i name="bandstr">   -153.12547475 </i>
    <i name="atom">    369.19214326 </i>
    <i name="e_fr_energy">    -40.49301039 </i>
    <i name="e_wo_entrp">    -40.49301039 </i>
    <i name="e_0_energy">    -40.49301039 </i>
   </energy>
  </scstep>
  <structure>
   <crystal>
    <varray name="basis" >
     <v>       8.00000000       0.00000000       0.00000000 </v>
     <v>       0.00000000       8.00000000       0.00000000 </v>
     <v>       0.00000000       0.00000000       8.00000000 </v>
    </varray>
    <i name="volume">    512.00000000 </i>
    <varray name="rec_basis" >
     <v>       0.12500000       0.00000000       0.00000000 </v>
     <v>       0.00000000       0.12500000       0.00000000 </v>
     <v>       0.00000000       0.00000000       0.12500000 </v>
    </varray>
   </crystal>
   <varray name="positions" >
    <v>       0.00000000       0.12791197       0.14495661 </v>
    <v>       0.88922564       0.93604616       0.14495556 </v>
    <v>       0.11077436       0.93604616       0.14495556 </v>
    <v>       0.00000000       0.87208803       0.85504339 </v>
    <v>       0.88922564       0.06395384       0.85504444 </v>
    <v>       0.11077436       0.06395384       0.85504444 </v>
    <v>       0.00000000       0.00000161       0.09492572 </v>
    <v>       0.00000000      -0.00000161       0.90507428 </v>
   </varray>
  </structure>
  <varray name="forces" >
   <v>       0.00000000       0.01887224       0.03283880 </v>
   <v>      -0.01575561      -0.00846927       0.03245456 </v>
   <v>       0.01575561      -0.00846927       0.03245456 </v>
   <v>       0.00000000      -0.01887224      -0.03283880 </v>
   <v>      -0.01575561       0.00846927      -0.03245456 </v>
   <v>       0.01575561       0.00846927      -0.03245456 </v>
   <v>       0.00000000       0.00019628       0.21047156 </v>
   <v>       0.00000000      -0.00019628      -0.21047156 </v>
  </varray>
  <varray name="stress" >
   <v>      -0.47006294       0.00000000       0.00000000 </v>
   <v>       0.00000000      -0.47622792       0.00457749 </v>
   <v>       0.00000000       0.00457698       0.79013783 </v>
  </varray>
  <energy>
   <i name="e_fr_energy">    -40.49301039 </i>
   <i name="e_wo_entrp">    -40.49301039 </i>
   <i name="e_0_energy">      0.00000000 </i>
  </energy>
  <time name="totalsc">   11.32   11.39</time>
 </calculation>
 <calculation>
  <scstep>
   <time name="dav">    0.67    0.67</time>
   <time name="total">    2.03    2.03</time>
   <energy>
    <i name="alphaZ">      1.51367591 </i>
    <i name="ewald">    234.38038946 </i>
    <i name="hartreedc">   -535.87679235 </i>
    <i name="XCdc">     45.38206301 </i>
    <i name="pawpsdc">    167.45517903 </i>
    <i name="pawaedc">   -170.20037719 </i>
    <i name="eentropy">      0.00000000 </i>
    <i name="bandstr">   -152.34074828 </i>
    <i name="atom">    369.19214326 </i>
    <i name="e_fr_energy">    -40.49446715 </i>
    <i name="e_wo_entrp">    -40.49446715 </i>
    <i name="e_0_energy">    -40.49446715 </i>
   </energy>
  </scstep>
  <scstep>
   <time name="dav">    0.70    0.71</time>
   <time name="total">    1.98    1.99</time>
   <energy>
    <i name="e_fr_energy">    -40.49389878 </i>
    <i name="e_wo_entrp">    -40.49389878 </i>
    <i name="e_0_energy">    -40.49389878 </i>
   </energy>
  </scstep>
  <scstep>
   <time name="dav">    0.68    0.69</time>
   <time name="total">    1.93    1.95</time>
   <energy>
    <i name="e_fr_energy">    -40.49383865 </i>
    <i name="e_wo_entrp">    -40.49383865 </i>
    <i name="e_0_energy">    -40.49383865 </i>
   </energy>
  </scstep>
  <scstep>
   <time name="dav">    0.69    0.70</time>
   <time name="total">    1.77    1.80</time>
   <energy>
    <i name="alphaZ">      1.51367591 </i>
    <i name="ewald">    234.38038946 </i>
    <i name="hartreedc">   -535.36781071 </i>
    <i name="XCdc">     45.36172837 </i>
    <i name="pawpsdc">    166.10206531 </i>
    <i name="pawaedc">   -168.84005428 </i>
    <i name="eentropy">      0.00000000 </i>
    <i name="bandstr">   -152.83591170 </i>
    <i name="atom">    369.19214326 </i>
    <i name="e_fr_energy">    -40.49377438 </i>
    <i name="e_wo_entrp">    -40.49377438 </i>
    <i name="e_0_energy">    -40.49377438 </i>
   </energy>
  </scstep>
  <structure>
   <crystal>
    <varray name="basis" >
     <v>       8.00000000       0.00000000       0.00000000 </v>
     <v>       0.00000000       8.00000000       0.00000000 </v>
     <v>       0.00000000       0.00000000       8.00000000 </v>
    </varray>
    <i name="volume">    512.00000000 </i>
    <varray name="rec_basis" >
     <v>       0.12500000       0.00000000       0.00000000 </v>
     <v>       0.00000000       0.12500000       0.00000000 </v>
     <v>       0.00000000       0.00000000       0.12500000 </v>
    </varray>
   </crystal>
   <varray name="positions" >
    <v>       0.00000000       0.12836349       0.14532911 </v>
    <v>       0.88883823       0.93582703       0.14532530 </v>
    <v>       0.11116177       0.93582703       0.14532530 </v>
    <v>       0.00000000       0.87163651       0.85467089 </v>
    <v>       0.88883823       0.06417297       0.85467470 </v>
    <v>       0.11116177       0.06417297       0.85467470 </v>
    <v>       0.00000000       0.00000371       0.09583486 </v>
    <v>       0.00000000      -0.00000371       0.90416514 </v>
   </varray>
  </structure>
  <varray name="forces" >
   <v>       0.00000000      -0.05226882       0.01779398 </v>
   <v>       0.04550012       0.02681517       0.01787983 </v>
   <v>      -0.04550012       0.02681517       0.01787983 </v>
   <v>       0.00000000       0.05226882      -0.01779398 </v>
   <v>       0.04550012      -0.02681517      -0.01787983 </v>
   <v>      -0.04550012      -0.02681517      -0.01787983 </v>
   <v>       0.00000000       0.00102027      -0.11235703 </v>
   <v>       0.00000000      -0.00102027       0.11235703 </v>
  </varray>
  <varray name="stress" >
   <v>      -1.03300909       0.00000000       0.00000000 </v>
   <v>       0.00000000      -1.04226092       0.00121526 </v>
   <v>       0.00000000       0.00121489      -1.04465018 </v>
  </varray>
  <energy>
   <i name="e_fr_energy">    -40.49377438 </i>
   <i name="e_wo_entrp">    -40.49377438 </i>
   <i name="e_0_energy">      0.00000000 </i>
  </energy>
  <time name="totalsc">   10.38   10.50</time>
 </calculation>
 <calculation>
  <scstep>
   <time name="dav">    0.68    0.68</time>
   <time name="total">    1.94    1.94</time>
   <energy>
    <i name="alphaZ">      1.51367591 </i>
    <i name="ewald">    235.46346191 </i>
    <i name="hartreedc">   -536.19240597 </i>
    <i name="XCdc">     45.38354316 </i>
    <i name="pawpsdc">    165.97996927 </i>
    <i name="pawaedc">   -168.71833343 </i>
    <i name="eentropy">      0.00000000 </i>
    <i name="bandstr">   -153.11642091 </i>
    <i name="atom">    369.19214326 </i>
    <i name="e_fr_energy">    -40.49436680 </i>
    <i name="e_wo_entrp">    -40.49436680 </i>
    <i name="e_0_energy">    -40.49436680 </i>
   </energy>
  </scstep>
  <scstep>
   <time name="dav">    0.67    0.67</time>
   <time name="total">    1.94    1.95</time>
   <energy>
    <i name="e_fr_energy">    -40.49424961 </i>
    <i name="e_wo_entrp">    -40.49424961 </i>
    <i name="e_0_energy">    -40.49424961 </i>
   </energy>
  </scstep>
  <scstep>
   <time name="dav">    0.76    0.76</time>
   <time name="total">    1.85    1.86</time>
   <energy>
    <i name="alphaZ">      1.51367591 </i>
    <i name="ewald">    235.46346191 </i>
    <i name="hartreedc">   -536.45058504 </i>
    <i name="XCdc">     45.39347433 </i>
    <i name="pawpsdc">    166.57124010 </i>
    <i name="pawaedc">   -169.31306081 </i>
    <i name="eentropy">      0.00000000 </i>
    <i name="bandstr">   -152.86458864 </i>
    <i name="atom">    369.19214326 </i>
    <i name="e_fr_energy">    -40.49423898 </i>
    <i name="e_wo_entrp">    -40.49423898 </i>
    <i name="e_0_energy">    -40.49423898 </i>
   </energy>
  </scstep>
  <structure>
   <crystal>
    <varray name="basis" >
     <v>       8.00000000       0.00000000       0.00000000 </v>
     <v>       0.00000000       8.00000000       0.00000000 </v>
     <v>       0.00000000       0.00000000       8.00000000 </v>
    </varray>
    <i name="volume">    512.00000000 </i>
    <varray name="rec_basis" >
     <v>       0.12500000       0.00000000       0.00000000 </v>
     <v>       0.00000000       0.12500000       0.00000000 </v>
     <v>       0.00000000       0.00000000       0.12500000 </v>
    </varray>
   </crystal>
   <varray name="positions" >
    <v>       0.00000000       0.12819299       0.14518845 </v>
    <v>       0.88898452       0.93590978       0.14518569 </v>
    <v>       0.11101548       0.93590978       0.14518569 </v>
    <v>       0.00000000       0.87180701       0.85481155 </v>
    <v>       0.88898452       0.06409022       0.85481431 </v>
    <v>       0.11101548       0.06409022       0.85481431 </v>
    <v>       0.00000000       0.00000292       0.09549156 </v>
    <v>       0.00000000      -0.00000292       0.90450844 </v>
   </varray>
  </structure>
  <varray name="forces" >
   <v>       0.00000000      -0.01822894       0.02723110 </v>
   <v>       0.01614904       0.00994971       0.02717594 </v>
   <v>      -0.01614904       0.00994971       0.02717594 </v>
   <v>       0.00000000       0.01822894      -0.02723110 </v>
   <v>       0.01614904      -0.00994971      -0.02717594 </v>
   <v>      -0.01614904      -0.00994971      -0.02717594 </v>
   <v>       0.00000000       0.00080068       0.01485018 </v>
   <v>       0.00000000      -0.00080068      -0.01485018 </v>
  </varray>
  <varray name="stress" >
   <v>      -1.00682094       0.00000000       0.00000000 </v>
   <v>       0.00000000      -1.01499624       0.00239267 </v>
   <v>       0.00000000       0.00239242      -0.46188023 </v>
  </varray>
  <energy>
   <i name="e_fr_energy">    -40.49423898 </i>
   <i name="e_wo_entrp">    -40.49423898 </i>
   <i name="e_0_energy">      0.00000000 </i>
  </energy>
  <time name="totalsc">    8.11    8.20</time>
  <eigenvalues>
   <array>
    <dimension dim="1">band</dimension>
    <dimension dim="2">kpoint</dimension>
    <dimension dim="3">spin</dimension>
    <field>eigene</field>
    <field>occ</field>
    <set>
     <set comment="spin 1">
      <set comment="kpoint 1">
       <r>  -18.0692    1.0000 </r>
       <r>  -14.5293    1.0000 </r>
       <r>  -10.0494    1.0000 </r>
       <r>  -10.0491    1.0000 </r>
       <r>   -8.4102    1.0000 </r>
       <r>   -7.6626    1.0000 </r>
       <r>   -7.6626    1.0000 </r>
       <r>   -0.5759    0.0000 </r>
       <r>    1.3636    0.0000 </r>
       <r>    1.3886    0.0000 </r>
       <r>    1.4239    0.0000 </r>
       <r>    1.5205    0.0000 </r>
      </set>
     </set>
    </set>
   </array>
  </eigenvalues>
  <separator name="orbital magnetization" >
   <v name="MAGDIPOLOUT">      0.00000000      0.00000000      0.00000000</v>
  </separator>
  <dos>
   <i name="efermi">     -6.70156160 </i>
   <total>
    <array>
     <dimension dim="1">gridpoints</dimension>
     <dimension dim="2">spin</dimension>
     <field>energy</field>
     <field>total</field>
     <field>integrated</field>
     <set>
      <set comment="spin 1">
       <r>   -20.0692     0.0000     0.0000 </r>
       <r>   -19.9905     0.0000     0.0000 </r>
       <r>   -19.9119     0.0000     0.0000 </r>
       <r>   -19.8333     0.0000     0.0000 </r>
       <r>   -19.7546     0.0000     0.0000 </r>
       <r>   -19.6760     0.0000     0.0000 </r>
       <r>   -19.5974     0.0000     0.0000 </r>
       <r>   -19.5187     0.0000     0.0000 </r>
       <r>   -19.4401     0.0000     0.0000 </r>
       <r>   -19.3615     0.0000     0.0000 </r>
       <r>   -19.2828     0.0000     0.0000 </r>
       <r>   -19.2042     0.0000     0.0000 </r>
       <r>   -19.1256     0.0000     0.0000 </r>
       <r>   -19.0469     0.0000     0.0000 </r>
       <r>   -18.9683     0.0000     0.0000 </r>
       <r>   -18.8897     0.0000     0.0000 </r>
       <r>   -18.8110     0.0000     0.0000 </r>
       <r>   -18.7324     0.0000     0.0000 </r>
       <r>   -18.6538     0.0004     0.0000 </r>
       <r>   -18.5752     0.0040     0.0003 </r>
       <r>   -18.4965     0.0275     0.0025 </r>
       <r>   -18.4179     0.1419     0.0137 </r>
       <r>   -18.3393     0.5403     0.0562 </r>
       <r>   -18.2606     1.5214     0.1758 </r>
       <r>   -18.1820     3.1690     0.4250 </r>
       <r>   -18.1034     4.8829     0.8089 </r>
       <r>   -18.0247     5.5665     1.2466 </r>
       <r>   -17.9461     4.6951     1.6158 </r>
       <r>   -17.8675     2.9299     1.8462 </r>
       <r>   -17.7888     1.3525     1.9525 </r>
       <r>   -17.7102     0.4618     1.9889 </r>
       <r>   -17.6316     0.1166     1.9980 </r>
       <r>   -17.5529     0.0218     1.9997 </r>
       <r>   -17.4743     0.0030     2.0000 </r>
       <r>   -17.3957     0.0003     2.0000 </r>
       <r>   -17.3170     0.0000     2.0000 </r>
       <r>   -17.2384     0.0000     2.0000 </r>
       <r>   -17.1598     0.0000     2.0000 </r>
       <r>   -17.0811     0.0000     2.0000 </r>
       <r>   -17.0025     0.0000     2.0000 </r>
       <r>   -16.9239     0.0000     2.0000 </r>
       <r>   -16.8452     0.0000     2.0000 </r>
       <r>   -16.7666     0.0000     2.0000 </r>
       <r>   -16.6880     0.0000     2.0000 </r>
       <r>   -16.6094     0.0000     2.0000 </r>
       <r>   -16.5307     0.0000     2.0000 </r>
       <r>   -16.4521     0.0000     2.0000 </r>
       <r>   -16.3735     0.0000     2.0000 </r>
       <r>   -16.2948     0.0000     2.0000 </r>
       <r>   -16.2162     0.0000     2.0000 </r>
       <r>   -16.1376     0.0000     2.0000 </r>
       <r>   -16.0589     0.0000     2.0000 </r>
       <r>   -15.9803     0.0000     2.0000 </r>
       <r>   -15.9017     0.0000     2.0000 </r>
       <r>   -15.8230     0.0000     2.0000 </r>
       <r>   -15.7444     0.0000     2.0000 </r>
       <r>   -15.6658     0.0000     2.0000 </r>
       <r>   -15.5871     0.0000     2.0000 </r>
       <r>   -15.5085     0.0000     2.0000 </r>
       <r>   -15.4299     0.0000     2.0000 </r>
       <r>   -15.3512     0.0000     2.0000 </r>
       <r>   -15.2726     0.0000     2.0000 </r>
       <r>   -15.1940     0.0000     2.0000 </r>
       <r>   -15.1153     0.0004     2.0000 </r>
       <r>   -15.0367     0.0038     2.0003 </r>
       <r>   -14.9581     0.0266     2.0024 </r>
       <r>   -14.8794     0.1380     2.0133 </r>
       <r>   -14.8008     0.5285     2.0548 </r>
       <r>   -14.7222     1.4966     2.1725 </r>
       <r>   -14.6436     3.1347     2.4190 </r>
       <r>   -14.5649     4.8572     2.8009 </r>
       <r>   -14.4863     5.5682     3.2388 </r>
       <r>   -14.4077     4.7229     3.6101 </r>
       <r>   -14.3290     2.9638     3.8432 </r>
       <r>   -14.2504     1.3759     3.9514 </r>
       <r>   -14.1718     0.4724     3.9885 </r>
       <r>   -14.0931     0.1199     3.9980 </r>
       <r>   -14.0145     0.0225     3.9997 </r>
       <r>   -13.9359     0.0031     4.0000 </r>
       <r>   -13.8572     0.0003     4.0000 </r>
       <r>   -13.7786     0.0000     4.0000 </r>
       <r>   -13.7000     0.0000     4.0000 </r>
       <r>   -13.6213     0.0000     4.0000 </r>
       <r>   -13.5427     0.0000     4.0000 </r>
       <r>   -13.4641     0.0000     4.0000 </r>
       <r>   -13.3854     0.0000     4.0000 </r>
       <r>   -13.3068     0.0000     4.0000 </r>
       <r>   -13.2282     0.0000     4.0000 </r>
       <r>   -13.1495     0.0000     4.0000 </r>
       <r>   -13.0709     0.0000     4.0000 </r>
       <r>   -12.9923     0.0000     4.0000 </r>
       <r>   -12.9136     0.0000     4.0000 </r>
       <r>   -12.8350     0.0000     4.0000 </r>
       <r>   -12.7564     0.0000     4.0000 </r>
       <r>   -12.6778     0.0000     4.0000 </r>
       <r>   -12.5991     0.0000     4.0000 </r>
       <r>   -12.5205     0.0000     4.0000 </r>
       <r>   -12.4419     0.0000     4.0000 </r>
       <r>   -12.3632     0.0000     4.0000 </r>
       <r>   -12.2846     0.0000     4.0000 </r>
       <r>   -12.2060     0.0000     4.0000 </r>
       <r>   -12.1273     0.0000     4.0000 </r>
       <r>   -12.0487     0.0000     4.0000 </r>
       <r>   -11.9701     0.0000     4.0000 </r>
       <r>   -11.8914     0.0000     4.0000 </r>
       <r>   -11.8128     0.0000     4.0000 </r>
       <r>   -11.7342     0.0000     4.0000 </r>
       <r>   -11.6555     0.0000     4.0000 </r>
       <r>   -11.5769     0.0000     4.0000 </r>
       <r>   -11.4983     0.0000     4.0000 </r>
       <r>   -11.4196     0.0000     4.0000 </r>
       <r>   -11.3410     0.0000     4.0000 </r>
       <r>   -11.2624     0.0000     4.0000 </r>
       <r>   -11.1837     0.0000     4.0000 </r>
       <r>   -11.1051     0.0000     4.0000 </r>
       <r>   -11.0265     0.0000     4.0000 </r>
       <r>   -10.9478     0.0000     4.0000 </r>
       <r>   -10.8692     0.0000     4.0000 </r>
       <r>   -10.7906     0.0000     4.0000 </r>
       <r>   -10.7119     0.0001     4.0000 </r>
       <r>   -10.6333     0.0009     4.0001 </r>
       <r>   -10.5547     0.0080     4.0007 </r>
       <r>   -10.4761     0.0558     4.0051 </r>
       <r>   -10.3974     0.2868     4.0276 </r>
       <r>   -10.3188     1.0899     4.1134 </r>
       <r>   -10.2402     3.0626     4.3542 </r>
       <r>   -10.1615     6.3649     4.8546 </r>
       <r>   -10.0829     9.7858     5.6241 </r>
       <r>   -10.0043    11.1313     6.4994 </r>
       <r>    -9.9256     9.3682     7.2360 </r>
       <r>    -9.8470     5.8332     7.6947 </r>
       <r>    -9.7684     2.6869     7.9060 </r>
       <r>    -9.6897     0.9154     7.9780 </r>
       <r>    -9.6111     0.2306     7.9961 </r>
       <r>    -9.5325     0.0429     7.9995 </r>
       <r>    -9.4538     0.0059     7.9999 </r>
       <r>    -9.3752     0.0006     8.0000 </r>
       <r>    -9.2966     0.0000     8.0000 </r>
       <r>    -9.2179     0.0000     8.0000 </r>
       <r>    -9.1393     0.0000     8.0000 </r>
       <r>    -9.0607     0.0001     8.0000 </r>
       <r>    -8.9820     0.0006     8.0001 </r>
       <r>    -8.9034     0.0055     8.0005 </r>
       <r>    -8.8248     0.0367     8.0034 </r>
       <r>    -8.7461     0.1800     8.0175 </r>
       <r>    -8.6675     0.6527     8.0688 </r>
       <r>    -8.5889     1.7499     8.2064 </r>
       <r>    -8.5103     3.4703     8.4793 </r>
       <r>    -8.4316     5.0915     8.8797 </r>
       <r>    -8.3530     5.5267     9.3143 </r>
       <r>    -8.2744     4.4390     9.6633 </r>
       <r>    -8.1957     2.6411     9.8710 </r>
       <r>    -8.1171     1.1883     9.9644 </r>
       <r>    -8.0385     0.5435    10.0071 </r>
       <r>    -7.9598     0.7950    10.0697 </r>
       <r>    -7.8812     2.2176    10.2440 </r>
       <r>    -7.8026     5.0911    10.6444 </r>
       <r>    -7.7239     8.7023    11.3286 </r>
       <r>    -7.6453    11.0089    12.1943 </r>
       <r>    -7.5667    10.3044    13.0045 </r>
       <r>    -7.4880     7.1359    13.5657 </r>
       <r>    -7.4094     3.6559    13.8531 </r>
       <r>    -7.3308     1.3854    13.9621 </r>
       <r>    -7.2521     0.3882    13.9926 </r>
       <r>    -7.1735     0.0804    13.9989 </r>
       <r>    -7.0949     0.0123    13.9999 </r>
       <r>    -7.0162     0.0014    14.0000 </r>
       <r>    -6.9376     0.0001    14.0000 </r>
       <r>    -6.8590     0.0000    14.0000 </r>
       <r>    -6.7803     0.0000    14.0000 </r>
       <r>    -6.7017     0.0000    14.0000 </r>
       <r>    -6.6231     0.0000    14.0000 </r>
       <r>    -6.5445     0.0000    14.0000 </r>
       <r>    -6.4658     0.0000    14.0000 </r>
       <r>    -6.3872     0.0000    14.0000 </r>
       <r>    -6.3086     0.0000    14.0000 </r>
       <r>    -6.2299     0.0000    14.0000 </r>
       <r>    -6.1513     0.0000    14.0000 </r>
       <r>    -6.0727     0.0000    14.0000 </r>
       <r>    -5.9940     0.0000    14.0000 </r>
       <r>    -5.9154     0.0000    14.0000 </r>
       <r>    -5.8368     0.0000    14.0000 </r>
       <r>    -5.7581     0.0000    14.0000 </r>
       <r>    -5.6795     0.0000    14.0000 </r>
       <r>    -5.6009     0.0000    14.0000 </r>
       <r>    -5.5222     0.0000    14.0000 </r>
       <r>    -5.4436     0.0000    14.0000 </r>
       <r>    -5.3650     0.0000    14.0000 </r>
       <r>    -5.2863     0.0000    14.0000 </r>
       <r>    -5.2077     0.0000    14.0000 </r>
       <r>    -5.1291     0.0000    14.0000 </r>
       <r>    -5.0504     0.0000    14.0000 </r>
       <r>    -4.9718     0.0000    14.0000 </r>
       <r>    -4.8932     0.0000    14.0000 </r>
       <r>    -4.8145     0.0000    14.0000 </r>
       <r>    -4.7359     0.0000    14.0000 </r>
       <r>    -4.6573     0.0000    14.0000 </r>
       <r>    -4.5786     0.0000    14.0000 </r>
       <r>    -4.5000     0.0000    14.0000 </r>
       <r>    -4.4214     0.0000    14.0000 </r>
       <r>    -4.3428     0.0000    14.0000 </r>
       <r>    -4.2641     0.0000    14.0000 </r>
       <r>    -4.1855     0.0000    14.0000 </r>
       <r>    -4.1069     0.0000    14.0000 </r>
       <r>    -4.0282     0.0000    14.0000 </r>
       <r>    -3.9496     0.0000    14.0000 </r>
       <r>    -3.8710     0.0000    14.0000 </r>
       <r>    -3.7923     0.0000    14.0000 </r>
       <r>    -3.7137     0.0000    14.0000 </r>
       <r>    -3.6351     0.0000    14.0000 </r>
       <r>    -3.5564     0.0000    14.0000 </r>
       <r>    -3.4778     0.0000    14.0000 </r>
       <r>    -3.3992     0.0000    14.0000 </r>
       <r>    -3.3205     0.0000    14.0000 </r>
       <r>    -3.2419     0.0000    14.0000 </r>
       <r>    -3.1633     0.0000    14.0000 </r>
       <r>    -3.0846     0.0000    14.0000 </r>
       <r>    -3.0060     0.0000    14.0000 </r>
       <r>    -2.9274     0.0000    14.0000 </r>
       <r>    -2.8487     0.0000    14.0000 </r>
       <r>    -2.7701     0.0000    14.0000 </r>
       <r>    -2.6915     0.0000    14.0000 </r>
       <r>    -2.6128     0.0000    14.0000 </r>
       <r>    -2.5342     0.0000    14.0000 </r>
       <r>    -2.4556     0.0000    14.0000 </r>
       <r>    -2.3770     0.0000    14.0000 </r>
       <r>    -2.2983     0.0000    14.0000 </r>
       <r>    -2.2197     0.0000    14.0000 </r>
       <r>    -2.1411     0.0000    14.0000 </r>
       <r>    -2.0624     0.0000    14.0000 </r>
       <r>    -1.9838     0.0000    14.0000 </r>
       <r>    -1.9052     0.0000    14.0000 </r>
       <r>    -1.8265     0.0000    14.0000 </r>
       <r>    -1.7479     0.0000    14.0000 </r>
       <r>    -1.6693     0.0000    14.0000 </r>
       <r>    -1.5906     0.0000    14.0000 </r>
       <r>    -1.5120     0.0000    14.0000 </r>
       <r>    -1.4334     0.0000    14.0000 </r>
       <r>    -1.3547     0.0000    14.0000 </r>
       <r>    -1.2761     0.0000    14.0000 </r>
       <r>    -1.1975     0.0001    14.0000 </r>
       <r>    -1.1188     0.0014    14.0001 </r>
       <r>    -1.0402     0.0115    14.0010 </r>
       <r>    -0.9616     0.0682    14.0064 </r>
       <r>    -0.8829     0.2995    14.0299 </r>
       <r>    -0.8043     0.9716    14.1063 </r>
       <r>    -0.7257     2.3315    14.2897 </r>
       <r>    -0.6470     4.1384    14.6151 </r>
       <r>    -0.5684     5.4345    15.0424 </r>
       <r>    -0.4898     5.2802    15.4576 </r>
       <r>    -0.4112     3.7957    15.7561 </r>
       <r>    -0.3325     2.0186    15.9148 </r>
       <r>    -0.2539     0.7941    15.9772 </r>
       <r>    -0.1753     0.2310    15.9954 </r>
       <r>    -0.0966     0.0497    15.9993 </r>
       <r>    -0.0180     0.0079    15.9999 </r>
       <r>     0.0606     0.0009    16.0000 </r>
       <r>     0.1393     0.0001    16.0000 </r>
       <r>     0.2179     0.0000    16.0000 </r>
       <r>     0.2965     0.0000    16.0000 </r>
       <r>     0.3752     0.0000    16.0000 </r>
       <r>     0.4538     0.0000    16.0000 </r>
       <r>     0.5324     0.0000    16.0000 </r>
       <r>     0.6111     0.0000    16.0000 </r>
       <r>     0.6897     0.0000    16.0000 </r>
       <r>     0.7683     0.0005    16.0000 </r>
       <r>     0.8470     0.0050    16.0004 </r>
       <r>     0.9256     0.0385    16.0035 </r>
       <r>     1.0042     0.2214    16.0209 </r>
       <r>     1.0829     0.9502    16.0956 </r>
       <r>     1.1615     3.0557    16.3359 </r>
       <r>     1.2401     7.3966    16.9175 </r>
       <r>     1.3188    13.5556    17.9834 </r>
       <r>     1.3974    18.9526    19.4737 </r>
       <r>     1.4760    20.3982    21.0776 </r>
       <r>     1.5546    17.0557    22.4187 </r>
       <r>     1.6333    11.1583    23.2961 </r>
       <r>     1.7119     5.7273    23.7465 </r>
       <r>     1.7905     2.2996    23.9273 </r>
       <r>     1.8692     0.7168    23.9837 </r>
       <r>     1.9478     0.1717    23.9972 </r>
       <r>     2.0264     0.0313    23.9996 </r>
       <r>     2.1051     0.0043    24.0000 </r>
       <r>     2.1837     0.0004    24.0000 </r>
       <r>     2.2623     0.0000    24.0000 </r>
       <r>     2.3410     0.0000    24.0000 </r>
       <r>     2.4196     0.0000    24.0000 </r>
       <r>     2.4982     0.0000    24.0000 </r>
       <r>     2.5769     0.0000    24.0000 </r>
       <r>     2.6555     0.0000    24.0000 </r>
       <r>     2.7341     0.0000    24.0000 </r>
       <r>     2.8128     0.0000    24.0000 </r>
       <r>     2.8914     0.0000    24.0000 </r>
       <r>     2.9700     0.0000    24.0000 </r>
       <r>     3.0487     0.0000    24.0000 </r>
       <r>     3.1273     0.0000    24.0000 </r>
       <r>     3.2059     0.0000    24.0000 </r>
       <r>     3.2846     0.0000    24.0000 </r>
       <r>     3.3632     0.0000    24.0000 </r>
       <r>     3.4418     0.0000    24.0000 </r>
       <r>     3.5205     0.0000    24.0000 </r>
      </set>
     </set>
    </array>
   </total>
  </dos>
 </calculation>
 <structure name="finalpos" >
  <crystal>
   <varray name="basis" >
    <v>       8.00000000       0.00000000       0.00000000 </v>
    <v>       0.00000000       8.00000000       0.00000000 </v>
    <v>       0.00000000       0.00000000       8.00000000 </v>
   </varray>
   <i name="volume">    512.00000000 </i>
   <varray name="rec_basis" >
    <v>       0.12500000       0.00000000       0.00000000 </v>
    <v>       0.00000000       0.12500000       0.00000000 </v>
    <v>       0.00000000       0.00000000       0.12500000 </v>
   </varray>
  </crystal>
  <varray name="positions" >
   <v>       0.00000000       0.12819299       0.14518845 </v>
   <v>       0.88898452       0.93590978       0.14518569 </v>
   <v>       0.11101548       0.93590978       0.14518569 </v>
   <v>       0.00000000       0.87180701       0.85481155 </v>
   <v>       0.88898452       0.06409022       0.85481431 </v>
   <v>       0.11101548       0.06409022       0.85481431 </v>
   <v>       0.00000000       0.00000292       0.09549156 </v>
   <v>       0.00000000      -0.00000292       0.90450844 </v>
  </varray>
 </structure>
</modeling>
