   6   6   0   0
  0.8533333E+02  0.8000000E-09  0.8000000E-09  0.8000000E-09  0.5000000E-15
  1.000000000000000E-004
  CAR 
 unknown system                          
      3.32742332    -20.42339458  301     -5.46022468      1.00000000
    -20.423  0.0000E+00  0.0000E+00
    -20.344  0.0000E+00  0.0000E+00
    -20.265  0.0000E+00  0.0000E+00
    -20.186  0.0000E+00  0.0000E+00
    -20.107  0.0000E+00  0.0000E+00
    -20.028  0.0000E+00  0.0000E+00
    -19.948  0.0000E+00  0.0000E+00
    -19.869  0.0000E+00  0.0000E+00
    -19.790  0.0000E+00  0.0000E+00
    -19.711  0.0000E+00  0.0000E+00
    -19.632  0.0000E+00  0.0000E+00
    -19.553  0.1823E-14  0.1443E-15
    -19.473  0.1414E-12  0.1134E-13
    -19.394  0.8280E-11  0.6669E-12
    -19.315  0.3561E-09  0.2886E-10
    -19.236  0.1125E-07  0.9195E-09
    -19.157  0.2610E-06  0.2159E-07
    -19.078  0.4451E-05  0.3740E-06
    -18.998  0.5581E-04  0.4793E-05
    -18.919  0.5147E-03  0.4554E-04
    -18.840  0.3492E-02  0.3220E-03
    -18.761  0.1744E-01  0.1703E-02
    -18.682  0.6414E-01  0.6781E-02
    -18.602  0.1737E+00  0.2053E-01
    -18.523  0.3466E+00  0.4798E-01
    -18.444  0.5096E+00  0.8833E-01
    -18.365  0.5521E+00  0.1320E+00
    -18.286  0.4408E+00  0.1669E+00
    -18.207  0.2593E+00  0.1875E+00
    -18.127  0.1124E+00  0.1964E+00
    -18.048  0.3588E-01  0.1992E+00
    -17.969  0.8435E-02  0.1999E+00
    -17.890  0.1460E-02  0.2000E+00
    -17.811  0.1860E-03  0.2000E+00
    -17.732  0.1743E-04  0.2000E+00
    -17.652  0.1201E-05  0.2000E+00
    -17.573  0.6084E-07  0.2000E+00
    -17.494  0.2264E-08  0.2000E+00
    -17.415  0.6190E-10  0.2000E+00
    -17.336  0.1242E-11  0.2000E+00
    -17.257  0.1851E-13  0.2000E+00
    -17.177  0.0000E+00  0.2000E+00
    -17.098  0.0000E+00  0.2000E+00
    -17.019  0.0000E+00  0.2000E+00
    -16.940  0.0000E+00  0.2000E+00
    -16.861  0.0000E+00  0.2000E+00
    -16.782  0.0000E+00  0.2000E+00
    -16.702  0.0000E+00  0.2000E+00
    -16.623  0.0000E+00  0.2000E+00
    -16.544  0.0000E+00  0.2000E+00
    -16.465  0.0000E+00  0.2000E+00
    -16.386  0.0000E+00  0.2000E+00
    -16.307  0.0000E+00  0.2000E+00
    -16.227  0.0000E+00  0.2000E+00
    -16.148  0.0000E+00  0.2000E+00
    -16.069  0.0000E+00  0.2000E+00
    -15.990  0.0000E+00  0.2000E+00
    -15.911  0.0000E+00  0.2000E+00
    -15.832  0.0000E+00  0.2000E+00
    -15.752  0.0000E+00  0.2000E+00
    -15.673  0.0000E+00  0.2000E+00
    -15.594  0.0000E+00  0.2000E+00
    -15.515  0.0000E+00  0.2000E+00
    -15.436  0.0000E+00  0.2000E+00
    -15.357  0.0000E+00  0.2000E+00
    -15.277  0.0000E+00  0.2000E+00
    -15.198  0.0000E+00  0.2000E+00
    -15.119  0.0000E+00  0.2000E+00
    -15.040  0.0000E+00  0.2000E+00
    -14.961  0.3225E-14  0.2000E+00
    -14.882  0.2485E-12  0.2000E+00
    -14.802  0.1397E-10  0.2000E+00
    -14.723  0.5764E-09  0.2000E+00
    -14.644  0.1747E-07  0.2000E+00
    -14.565  0.3889E-06  0.2000E+00
    -14.486  0.6363E-05  0.2000E+00
    -14.407  0.7656E-04  0.2000E+00
    -14.327  0.6775E-03  0.2001E+00
    -14.248  0.4412E-02  0.2004E+00
    -14.169  0.2115E-01  0.2021E+00
    -14.090  0.7464E-01  0.2080E+00
    -14.011  0.1940E+00  0.2234E+00
    -13.932  0.3716E+00  0.2528E+00
    -13.852  0.5244E+00  0.2943E+00
    -13.773  0.5453E+00  0.3375E+00
    -13.694  0.4178E+00  0.3705E+00
    -13.615  0.2359E+00  0.3892E+00
    -13.536  0.9814E-01  0.3970E+00
    -13.456  0.3007E-01  0.3994E+00
    -13.377  0.6786E-02  0.3999E+00
    -13.298  0.1127E-02  0.4000E+00
    -13.219  0.1378E-03  0.4000E+00
    -13.140  0.1239E-04  0.4000E+00
    -13.061  0.8193E-06  0.4000E+00
    -12.981  0.3982E-07  0.4000E+00
    -12.902  0.1422E-08  0.4000E+00
    -12.823  0.3730E-10  0.4000E+00
    -12.744  0.7186E-12  0.4000E+00
    -12.665  0.1010E-13  0.4000E+00
    -12.586  0.0000E+00  0.4000E+00
    -12.506  0.0000E+00  0.4000E+00
    -12.427  0.0000E+00  0.4000E+00
    -12.348  0.0000E+00  0.4000E+00
    -12.269  0.0000E+00  0.4000E+00
    -12.190  0.1963E-14  0.4000E+00
    -12.111  0.1587E-12  0.4000E+00
    -12.031  0.9219E-11  0.4000E+00
    -11.952  0.3932E-09  0.4000E+00
    -11.873  0.1231E-07  0.4000E+00
    -11.794  0.2833E-06  0.4000E+00
    -11.715  0.4791E-05  0.4000E+00
    -11.636  0.5957E-04  0.4000E+00
    -11.556  0.5447E-03  0.4000E+00
    -11.477  0.3665E-02  0.4003E+00
    -11.398  0.1815E-01  0.4018E+00
    -11.319  0.6619E-01  0.4070E+00
    -11.240  0.1778E+00  0.4211E+00
    -11.161  0.3518E+00  0.4489E+00
    -11.081  0.5128E+00  0.4895E+00
    -11.002  0.5510E+00  0.5332E+00
    -10.923  0.4362E+00  0.5677E+00
    -10.844  0.2544E+00  0.5878E+00
    -10.765  0.1094E+00  0.5965E+00
    -10.686  0.3462E-01  0.5992E+00
    -10.606  0.8072E-02  0.5999E+00
    -10.527  0.1386E-02  0.6000E+00
    -10.448  0.1826E-03  0.6000E+00
    -10.369  0.1063E-03  0.6000E+00
    -10.290  0.7809E-03  0.6001E+00
    -10.211  0.4970E-02  0.6005E+00
    -10.131  0.2332E-01  0.6023E+00
    -10.052  0.8057E-01  0.6087E+00
     -9.973  0.2050E+00  0.6249E+00
     -9.894  0.3844E+00  0.6554E+00
     -9.815  0.5310E+00  0.6974E+00
     -9.736  0.5406E+00  0.7402E+00
     -9.656  0.4055E+00  0.7723E+00
     -9.577  0.2241E+00  0.7900E+00
     -9.498  0.9127E-01  0.7973E+00
     -9.419  0.2738E-01  0.7994E+00
     -9.340  0.6047E-02  0.7999E+00
     -9.261  0.9833E-03  0.8000E+00
     -9.181  0.1177E-03  0.8000E+00
     -9.102  0.1036E-04  0.8000E+00
     -9.023  0.6703E-06  0.8000E+00
     -8.944  0.3453E-07  0.8000E+00
     -8.865  0.7134E-07  0.8000E+00
     -8.785  0.1367E-05  0.8000E+00
     -8.706  0.1956E-04  0.8000E+00
     -8.627  0.2058E-03  0.8000E+00
     -8.548  0.1593E-02  0.8001E+00
     -8.469  0.9075E-02  0.8009E+00
     -8.390  0.3806E-01  0.8039E+00
     -8.310  0.1176E+00  0.8132E+00
     -8.231  0.2675E+00  0.8344E+00
     -8.152  0.4483E+00  0.8699E+00
     -8.073  0.5538E+00  0.9137E+00
     -7.994  0.5041E+00  0.9536E+00
     -7.915  0.3381E+00  0.9804E+00
     -7.835  0.1671E+00  0.9936E+00
     -7.756  0.6083E-01  0.9984E+00
     -7.677  0.1631E-01  0.9997E+00
     -7.598  0.3220E-02  0.1000E+01
     -7.519  0.4680E-03  0.1000E+01
     -7.440  0.5004E-04  0.1000E+01
     -7.360  0.3935E-05  0.1000E+01
     -7.281  0.2278E-06  0.1000E+01
     -7.202  0.2055E-07  0.1000E+01
     -7.123  0.2535E-06  0.1000E+01
     -7.044  0.4332E-05  0.1000E+01
     -6.965  0.5449E-04  0.1000E+01
     -6.885  0.5040E-03  0.1000E+01
     -6.806  0.3431E-02  0.1000E+01
     -6.727  0.1719E-01  0.1002E+01
     -6.648  0.6340E-01  0.1007E+01
     -6.569  0.1722E+00  0.1020E+01
     -6.490  0.3448E+00  0.1048E+01
     -6.410  0.5084E+00  0.1088E+01
     -6.331  0.5525E+00  0.1132E+01
     -6.252  0.4425E+00  0.1167E+01
     -6.173  0.2611E+00  0.1187E+01
     -6.094  0.1135E+00  0.1196E+01
     -6.015  0.3635E-01  0.1199E+01
     -5.935  0.8573E-02  0.1200E+01
     -5.856  0.1488E-02  0.1200E+01
     -5.777  0.1902E-03  0.1200E+01
     -5.698  0.1788E-04  0.1200E+01
     -5.619  0.1236E-05  0.1200E+01
     -5.540  0.6280E-07  0.1200E+01
     -5.460  0.2345E-08  0.1200E+01
     -5.381  0.6430E-10  0.1200E+01
     -5.302  0.1295E-11  0.1200E+01
     -5.223  0.1935E-13  0.1200E+01
     -5.144  0.0000E+00  0.1200E+01
     -5.065  0.0000E+00  0.1200E+01
     -4.985  0.0000E+00  0.1200E+01
     -4.906  0.0000E+00  0.1200E+01
     -4.827  0.0000E+00  0.1200E+01
     -4.748  0.0000E+00  0.1200E+01
     -4.669  0.0000E+00  0.1200E+01
     -4.590  0.0000E+00  0.1200E+01
     -4.510  0.0000E+00  0.1200E+01
     -4.431  0.0000E+00  0.1200E+01
     -4.352  0.0000E+00  0.1200E+01
     -4.273  0.0000E+00  0.1200E+01
     -4.194  0.0000E+00  0.1200E+01
     -4.114  0.0000E+00  0.1200E+01
     -4.035  0.0000E+00  0.1200E+01
     -3.956  0.0000E+00  0.1200E+01
     -3.877  0.0000E+00  0.1200E+01
     -3.798  0.0000E+00  0.1200E+01
     -3.719  0.0000E+00  0.1200E+01
     -3.639  0.0000E+00  0.1200E+01
     -3.560  0.0000E+00  0.1200E+01
     -3.481  0.0000E+00  0.1200E+01
     -3.402  0.0000E+00  0.1200E+01
     -3.323  0.0000E+00  0.1200E+01
     -3.244  0.0000E+00  0.1200E+01
     -3.164  0.0000E+00  0.1200E+01
     -3.085  0.0000E+00  0.1200E+01
     -3.006  0.0000E+00  0.1200E+01
     -2.927  0.0000E+00  0.1200E+01
     -2.848  0.0000E+00  0.1200E+01
     -2.769  0.0000E+00  0.1200E+01
     -2.689  0.0000E+00  0.1200E+01
     -2.610  0.0000E+00  0.1200E+01
     -2.531  0.0000E+00  0.1200E+01
     -2.452  0.0000E+00  0.1200E+01
     -2.373  0.0000E+00  0.1200E+01
     -2.294  0.0000E+00  0.1200E+01
     -2.214  0.0000E+00  0.1200E+01
     -2.135  0.0000E+00  0.1200E+01
     -2.056  0.0000E+00  0.1200E+01
     -1.977  0.0000E+00  0.1200E+01
     -1.898  0.0000E+00  0.1200E+01
     -1.819  0.2805E-15  0.1200E+01
     -1.739  0.1991E-13  0.1200E+01
     -1.660  0.1351E-11  0.1200E+01
     -1.581  0.6690E-10  0.1200E+01
     -1.502  0.2433E-08  0.1200E+01
     -1.423  0.6499E-07  0.1200E+01
     -1.344  0.1277E-05  0.1200E+01
     -1.264  0.1845E-04  0.1200E+01
     -1.185  0.1965E-03  0.1200E+01
     -1.106  0.1544E-02  0.1200E+01
     -1.027  0.8982E-02  0.1201E+01
     -0.948  0.3882E-01  0.1204E+01
     -0.869  0.1256E+00  0.1214E+01
     -0.789  0.3070E+00  0.1238E+01
     -0.710  0.5756E+00  0.1284E+01
     -0.631  0.8414E+00  0.1350E+01
     -0.552  0.9739E+00  0.1427E+01
     -0.473  0.8992E+00  0.1499E+01
     -0.394  0.6596E+00  0.1551E+01
     -0.314  0.3791E+00  0.1581E+01
     -0.235  0.1679E+00  0.1594E+01
     -0.156  0.5640E-01  0.1599E+01
     -0.077  0.1422E-01  0.1600E+01
      0.002  0.2668E-02  0.1600E+01
      0.081  0.3709E-03  0.1600E+01
      0.161  0.3808E-04  0.1600E+01
      0.240  0.2882E-05  0.1600E+01
      0.319  0.1605E-06  0.1600E+01
      0.398  0.7581E-08  0.1600E+01
      0.477  0.2987E-07  0.1600E+01
      0.556  0.6455E-06  0.1600E+01
      0.636  0.1037E-04  0.1600E+01
      0.715  0.1231E-03  0.1600E+01
      0.794  0.1082E-02  0.1600E+01
      0.873  0.7049E-02  0.1601E+01
      0.952  0.3411E-01  0.1603E+01
      1.032  0.1227E+00  0.1613E+01
      1.111  0.3287E+00  0.1639E+01
      1.190  0.6563E+00  0.1691E+01
      1.269  0.9777E+00  0.1768E+01
      1.348  0.1087E+01  0.1855E+01
      1.427  0.9026E+00  0.1926E+01
      1.507  0.5593E+00  0.1970E+01
      1.586  0.2585E+00  0.1991E+01
      1.665  0.8904E-01  0.1998E+01
      1.744  0.2282E-01  0.2000E+01
      1.823  0.4349E-02  0.2000E+01
      1.902  0.6150E-03  0.2000E+01
      1.982  0.6446E-04  0.2000E+01
      2.061  0.4999E-05  0.2000E+01
      2.140  0.2865E-06  0.2000E+01
      2.219  0.1212E-07  0.2000E+01
      2.298  0.3781E-09  0.2000E+01
      2.377  0.8685E-11  0.2000E+01
      2.457  0.1470E-12  0.2000E+01
      2.536  0.1683E-14  0.2000E+01
      2.615  0.0000E+00  0.2000E+01
      2.694  0.0000E+00  0.2000E+01
      2.773  0.0000E+00  0.2000E+01
      2.852  0.0000E+00  0.2000E+01
      2.932  0.0000E+00  0.2000E+01
      3.011  0.0000E+00  0.2000E+01
      3.090  0.0000E+00  0.2000E+01
      3.169  0.0000E+00  0.2000E+01
      3.248  0.0000E+00  0.2000E+01
      3.327  0.0000E+00  0.2000E+01
