    6    6   10    1
  0.8533333E+02  0.8000000E-09  0.8000000E-09  0.8000000E-09  0.5000000E-15
  1.000000000000000E-004
  CAR 
 unknown system                          
   12    1   10
 
  0.0000000E+00  0.0000000E+00  0.0000000E+00  0.1000000E+01
   1      -18.423395
   2      -13.842197
   3      -11.062815
   4       -9.810077
   5       -8.097366
   6       -6.388846
   7       -0.653438
   8       -0.506295
   9        1.268131
  10        1.327423
