<?xml version="1.0" encoding="ISO-8859-1"?>
<modeling>
 <generator>
  <i name="program" type="string">vasp </i>
  <i name="version" type="string">5.2.12  </i>
  <i name="subversion" type="string">11Nov11 complex                                                      parallel </i>
  <i name="platform" type="string">LinuxIFC </i>
  <i name="date" type="string">2012 11 03 </i>
  <i name="time" type="string">01:30:19 </i>
 </generator>
 <incar>
  <i type="string" name="PREC">normal</i>
  <i type="int" name="IBRION">     2</i>
  <i type="int" name="NSW">    10</i>
  <i name="ENCUT">    500.00000000</i>
  <i type="int" name="ISMEAR">     0</i>
 </incar>
 <kpoints>
  <generation param="Monkhorst-Pack">
   <v type="int" name="divisions">       1        1        1 </v>
   <v name="usershift">      0.00000000       0.00000000       0.00000000 </v>
   <v name="genvec1">      1.00000000       0.00000000       0.00000000 </v>
   <v name="genvec2">      0.00000000       1.00000000       0.00000000 </v>
   <v name="genvec3">      0.00000000       0.00000000       1.00000000 </v>
   <v name="shift">      0.00000000       0.00000000       0.00000000 </v>
  </generation>
  <varray name="kpointlist" >
   <v>       0.00000000       0.00000000       0.00000000 </v>
  </varray>
  <varray name="weights" >
   <v>       1.00000000 </v>
  </varray>
 </kpoints>
 <parameters>
  <separator name="general" >
   <i type="string" name="SYSTEM">unknown system</i>
   <i type="logical" name="LCOMPAT"> F  </i>
  </separator>
  <separator name="electronic" >
   <i type="string" name="PREC">normal</i>
   <i name="ENMAX">    500.00000000</i>
   <i name="ENAUG">    644.87300000</i>
   <i name="EDIFF">      0.00010000</i>
   <i type="int" name="IALGO">    38</i>
   <i type="int" name="IWAVPR">    11</i>
   <i type="int" name="NBANDS">    10</i>
   <i name="NELECT">     12.00000000</i>
   <i type="int" name="TURBO">     0</i>
   <i type="int" name="IRESTART">     0</i>
   <i type="int" name="NREBOOT">     0</i>
   <i type="int" name="NMIN">     0</i>
   <i name="EREF">      0.00000000</i>
   <separator name="electronic smearing" >
    <i type="int" name="ISMEAR">     0</i>
    <i name="SIGMA">      0.20000000</i>
    <i name="KSPACING">      0.50000000</i>
    <i type="logical" name="KGAMMA"> T  </i>
   </separator>
   <separator name="electronic projectors" >
    <i type="logical" name="LREAL"> F  </i>
    <v name="ROPT">      0.00000000      0.00000000</v>
    <i type="int" name="LMAXPAW">  -100</i>
    <i type="int" name="LMAXMIX">     2</i>
    <i type="logical" name="NLSPLINE"> F  </i>
   </separator>
   <separator name="electronic startup" >
    <i type="int" name="ISTART">     0</i>
    <i type="int" name="ICHARG">     2</i>
    <i type="int" name="INIWAV">     1</i>
   </separator>
   <separator name="electronic spin" >
    <i type="int" name="ISPIN">     1</i>
    <i type="logical" name="LNONCOLLINEAR"> F  </i>
    <v name="MAGMOM">      1.00000000      1.00000000      1.00000000      1.00000000      1.00000000      1.00000000</v>
    <i name="NUPDOWN">     -1.00000000</i>
    <i type="logical" name="LSORBIT"> F  </i>
    <v name="SAXIS">      0.00000000      0.00000000      1.00000000</v>
    <i type="logical" name="LSPIRAL"> F  </i>
    <v name="QSPIRAL">      0.00000000      0.00000000      0.00000000</v>
    <i type="logical" name="LZEROZ"> F  </i>
   </separator>
   <separator name="electronic exchange-correlation" >
    <i type="logical" name="LASPH"> F  </i>
    <i type="logical" name="LMETAGGA"> F  </i>
   </separator>
   <separator name="electronic convergence" >
    <i type="int" name="NELM">    60</i>
    <i type="int" name="NELMDL">    -5</i>
    <i type="int" name="NELMIN">     2</i>
    <i name="ENINI">    500.00000000</i>
    <separator name="electronic convergence detail" >
     <i type="logical" name="LDIAG"> T  </i>
     <i type="logical" name="LSUBROT"> T  </i>
     <i name="WEIMIN">      0.00100000</i>
     <i name="EBREAK">      0.00000250</i>
     <i name="DEPER">      0.30000000</i>
     <i type="int" name="NRMM">     4</i>
     <i name="TIME">      0.40000000</i>
    </separator>
   </separator>
   <separator name="electronic mixer" >
    <i name="AMIX">      0.40000000</i>
    <i name="BMIX">      1.00000000</i>
    <i name="AMIN">      0.10000000</i>
    <i name="AMIX_MAG">      1.60000000</i>
    <i name="BMIX_MAG">      1.00000000</i>
    <separator name="electronic mixer details" >
     <i type="int" name="IMIX">     4</i>
     <i type="int" name="MAXMIX">   -45</i>
     <i name="WC">    100.00000000</i>
     <i type="int" name="INIMIX">     1</i>
     <i type="int" name="MIXPRE">     1</i>
     <i type="int" name="MREMOVE">     5</i>
    </separator>
   </separator>
   <separator name="electronic dipolcorrection" >
    <i type="logical" name="LDIPOL"> F  </i>
    <i type="logical" name="LMONO"> F  </i>
    <i type="int" name="IDIPOL">     0</i>
    <i name="EPSILON">      1.00000000</i>
    <v name="DIPOL">   -100.00000000   -100.00000000   -100.00000000</v>
    <i name="EFIELD">      0.00000000</i>
   </separator>
  </separator>
  <separator name="grids" >
   <i type="int" name="NGX">    48</i>
   <i type="int" name="NGY">    48</i>
   <i type="int" name="NGZ">    48</i>
   <i type="int" name="NGXF">    96</i>
   <i type="int" name="NGYF">    96</i>
   <i type="int" name="NGZF">    96</i>
   <i type="logical" name="ADDGRID"> F  </i>
  </separator>
  <separator name="ionic" >
   <i type="int" name="NSW">    10</i>
   <i type="int" name="IBRION">     2</i>
   <i type="int" name="ISIF">     2</i>
   <i name="PSTRESS">      0.00000000</i>
   <i name="EDIFFG">      0.00100000</i>
   <i type="int" name="NFREE">     1</i>
   <i name="POTIM">      0.50000000</i>
   <i name="SMASS">     -3.00000000</i>
   <i name="SCALEE">      1.00000000</i>
  </separator>
  <separator name="ionic md" >
   <i name="TEBEG">      0.00010000</i>
   <i name="TEEND">      0.00010000</i>
   <i type="int" name="NBLOCK">     1</i>
   <i type="int" name="KBLOCK">    10</i>
   <i type="int" name="NPACO">   256</i>
   <i name="APACO">     16.00000000</i>
  </separator>
  <separator name="symmetry" >
   <i type="int" name="ISYM">     2</i>
   <i name="SYMPREC">      0.00001000</i>
  </separator>
  <separator name="dos" >
   <i type="logical" name="LORBIT"> F  </i>
   <v name="RWIGS">     -1.00000000     -1.00000000</v>
   <i type="int" name="NEDOS">   301</i>
   <i name="EMIN">     10.00000000</i>
   <i name="EMAX">    -10.00000000</i>
   <i name="EFERMI">      0.00000000</i>
  </separator>
  <separator name="writing" >
   <i type="int" name="NWRITE">     2</i>
   <i type="logical" name="LWAVE"> T  </i>
   <i type="logical" name="LCHARG"> T  </i>
   <i type="logical" name="LPARD"> F  </i>
   <i type="logical" name="LVTOT"> F  </i>
   <i type="logical" name="LVHAR"> F  </i>
   <i type="logical" name="LELF"> F  </i>
   <i type="logical" name="LOPTICS"> F  </i>
   <v name="STM">      0.00000000      0.00000000      0.00000000      0.00000000      0.00000000      0.00000000      0.00000000</v>
  </separator>
  <separator name="performance" >
   <i type="int" name="NPAR">     1</i>
   <i type="int" name="NSIM">     4</i>
   <i type="int" name="NBLK">    -1</i>
   <i type="logical" name="LPLANE"> T  </i>
   <i type="logical" name="LSCALAPACK"> F  </i>
   <i type="logical" name="LSCAAWARE"> F  </i>
   <i type="logical" name="LSCALU"> F  </i>
   <i type="logical" name="LASYNC"> F  </i>
   <i type="logical" name="LORBITALREAL"> F  </i>
  </separator>
  <separator name="miscellaneous" >
   <i type="int" name="IDIOT">     3</i>
   <i type="logical" name="LMUSIC"> F  </i>
   <v name="POMASS">      1.00000000     12.01100000</v>
   <v name="DARWINR">      0.00000000      0.00000000</v>
   <v name="DARWINV">      1.00000000      1.00000000</v>
   <i type="logical" name="LCORR"> T  </i>
  </separator>
  <i type="logical" name="GGA_COMPAT"> T  </i>
  <i type="logical" name="LBERRY"> F  </i>
  <i type="int" name="ICORELEVEL">     0</i>
  <i type="logical" name="LDAU"> F  </i>
  <i type="int" name="I_CONSTRAINED_M">     0</i>
  <separator name="electronic exchange-correlation" >
   <i type="string" name="GGA">--</i>
   <i type="int" name="VOSKOWN">     0</i>
   <i type="logical" name="LHFCALC"> F  </i>
   <i type="string" name="PRECFOCK"></i>
   <i type="logical" name="LHFONE"> F  </i>
   <i type="logical" name="LRHFCALC"> F  </i>
   <i type="logical" name="LTHOMAS"> F  </i>
   <i type="logical" name="LMODELHF"> F  </i>
   <i name="ENCUT4O">     -1.00000000</i>
   <i type="int" name="EXXOEP">     0</i>
   <i type="int" name="FOURORBIT">     0</i>
   <i name="AEXX">      0.00000000</i>
   <i name="HFALPHA">      0.00000000</i>
   <i name="ALDAX">      1.00000000</i>
   <i name="AGGAX">      1.00000000</i>
   <i name="ALDAC">      1.00000000</i>
   <i name="AGGAC">      1.00000000</i>
   <i type="int" name="NKREDX">     1</i>
   <i type="int" name="NKREDY">     1</i>
   <i type="int" name="NKREDZ">     1</i>
   <i type="logical" name="SHIFTRED"> F  </i>
   <i type="logical" name="ODDONLY"> F  </i>
   <i type="logical" name="EVENONLY"> F  </i>
   <i type="int" name="LMAXFOCK">     0</i>
   <i type="int" name="NMAXFOCKAE">     0</i>
   <i type="logical" name="LFOCKAEDFT"> F  </i>
   <i name="HFSCREEN">      0.00000000</i>
   <i name="HFSCREENC">      0.00000000</i>
  </separator>
  <separator name="vdW DFT" >
   <i type="logical" name="LUSE_VDW"> F  </i>
   <i name="Zab_VDW">     -0.84910000</i>
   <i name="PARAM1">      0.12340000</i>
   <i name="PARAM2">      1.00000000</i>
   <i name="PARAM3">      0.00000000</i>
  </separator>
  <separator name="model GW" >
   <i type="int" name="MODEL_GW">     0</i>
   <i name="MODEL_EPS0">     51.20000000</i>
   <i name="MODEL_ALPHA">      1.00000000</i>
  </separator>
  <separator name="linear response parameters" >
   <i type="logical" name="LEPSILON"> F  </i>
   <i type="logical" name="LRPA"> F  </i>
   <i type="logical" name="LNABLA"> F  </i>
   <i type="logical" name="LVEL"> F  </i>
   <i type="int" name="KINTER">     0</i>
   <i name="CSHIFT">      0.10000000</i>
   <i name="OMEGAMAX">     -1.00000000</i>
  </separator>
  <separator name="orbital magnetization" >
   <i type="logical" name="NUCIND"> F  </i>
   <v name="MAGPOS">      0.00000000      0.00000000      0.00000000</v>
   <i type="logical" name="LNICSALL"> T  </i>
   <i type="logical" name="ORBITALMAG"> F  </i>
   <i type="logical" name="LMAGBLOCH"> F  </i>
   <i type="logical" name="LCHIMAG"> F  </i>
   <i type="logical" name="LGAUGE"> T  </i>
   <i type="int" name="MAGATOM">     0</i>
   <v name="MAGDIPOL">      0.00000000      0.00000000      0.00000000</v>
   <v name="AVECCONST">      0.00000000      0.00000000      0.00000000</v>
  </separator>
  <separator name="response functions" >
   <i type="logical" name="LADDER"> F  </i>
   <i type="logical" name="LHARTREE"> T  </i>
   <i type="int" name="IBSE">     0</i>
   <i type="logical" name="LTCTE"> F  </i>
   <i type="logical" name="LTETE"> F  </i>
   <i type="logical" name="LFXCEPS"> F  </i>
   <i type="logical" name="L2ORDER"> F  </i>
   <i type="logical" name="LUSEW"> F  </i>
   <i name="ENCUTGW">     -2.00000000</i>
   <i name="ENCUTGWSOFT">     -2.00000000</i>
   <i name="ENCUTLF">     -1.00000000</i>
   <i type="int" name="LMAXMP2">    -1</i>
   <i name="SCISSOR">      0.00000000</i>
   <i type="int" name="NOMEGA">     0</i>
   <i type="int" name="NOMEGAR">     0</i>
   <i type="int" name="NBANDSGW">    -1</i>
   <i type="int" name="NBANDSO">    -1</i>
   <i type="int" name="NBANDSV">    -1</i>
   <i name="OPTEMAX">      0.00000000</i>
   <i type="int" name="NELM">     1</i>
   <i type="int" name="DIM">     3</i>
   <i type="int" name="ANTIRES">     0</i>
   <i name="OMEGAMAX">    -30.00000000</i>
   <i name="OMEGATL">   -200.00000000</i>
   <i type="int" name="OMEGAGRID">     0</i>
   <i name="CSHIFT">     -0.10000000</i>
   <i type="logical" name="SELFENERGY"> F  </i>
   <i type="logical" name="LSPECTRAL"> F  </i>
   <i type="logical" name="ODDONLYGW"> F  </i>
   <i type="logical" name="EVENONLYGW"> F  </i>
   <i type="int" name="NKREDLFX">     1</i>
   <i type="int" name="NKREDLFY">     1</i>
   <i type="int" name="NKREDLFZ">     1</i>
   <i type="int" name="MAXMEM">  1800</i>
   <i type="int" name="TELESCOPE">     0</i>
  </separator>
 </parameters>
 <atominfo>
  <atoms>       6 </atoms>
  <types>       2 </types>
  <array name="atoms" >
   <dimension dim="1">ion</dimension>
   <field type="string">element</field>
   <field type="int">atomtype</field>
   <set>
    <rc><c>H </c><c>   1</c></rc>
    <rc><c>H </c><c>   1</c></rc>
    <rc><c>H </c><c>   1</c></rc>
    <rc><c>H </c><c>   1</c></rc>
    <rc><c>C </c><c>   2</c></rc>
    <rc><c>C </c><c>   2</c></rc>
   </set>
  </array>
  <array name="atomtypes" >
   <dimension dim="1">type</dimension>
   <field type="int">atomspertype</field>
   <field type="string">element</field>
   <field>mass</field>
   <field>valence</field>
   <field type="string">pseudopotential</field>
   <set>
    <rc><c>   4</c><c>H </c><c>      1.00000000</c><c>      1.00000000</c><c> PAW_PBE H 15Jun2001                    </c></rc>
    <rc><c>   2</c><c>C </c><c>     12.01100000</c><c>      4.00000000</c><c> PAW_PBE C 08Apr2002                    </c></rc>
   </set>
  </array>
 </atominfo>
 <structure name="initialpos" >
  <crystal>
   <varray name="basis" >
    <v>       8.00000000       0.00000000       0.00000000 </v>
    <v>       0.00000000       8.00000000       0.00000000 </v>
    <v>       0.00000000       0.00000000       8.00000000 </v>
   </varray>
   <i name="volume">    512.00000000 </i>
   <varray name="rec_basis" >
    <v>       0.12500000       0.00000000       0.00000000 </v>
    <v>       0.00000000       0.12500000       0.00000000 </v>
    <v>       0.00000000       0.00000000       0.12500000 </v>
   </varray>
  </crystal>
  <varray name="positions" >
   <v>       0.00000000       0.11535400       0.15471187 </v>
   <v>       0.00000000       0.88464600       0.15471187 </v>
   <v>       0.00000000       0.11535400       0.84528813 </v>
   <v>       0.00000000       0.88464600       0.84528813 </v>
   <v>       0.00000000       0.00000000       0.08343500 </v>
   <v>       0.00000000       0.00000000       0.91656500 </v>
  </varray>
 </structure>
 <calculation>
  <scstep>
   <time name="dav">    0.68    0.68</time>
   <time name="total">    2.06    2.07</time>
   <energy>
    <i name="alphaZ">      1.18323955 </i>
    <i name="ewald">    172.18683896 </i>
    <i name="hartreedc">   -393.99545989 </i>
    <i name="XCdc">     35.70888351 </i>
    <i name="pawpsdc">     78.78818903 </i>
    <i name="pawaedc">    -81.12517927 </i>
    <i name="eentropy">     -0.00001290 </i>
    <i name="bandstr">    -92.18582972 </i>
    <i name="atom">    344.24256285 </i>
    <i name="e_fr_energy">     64.80323213 </i>
    <i name="e_wo_entrp">     64.80324503 </i>
    <i name="e_0_energy">     64.80323858 </i>
   </energy>
  </scstep>
  <scstep>
   <time name="dav">    0.72    0.72</time>
   <time name="total">    0.72    0.72</time>
   <energy>
    <i name="e_fr_energy">     -5.51150829 </i>
    <i name="e_wo_entrp">     -5.51150829 </i>
    <i name="e_0_energy">     -5.51150829 </i>
   </energy>
  </scstep>
  <scstep>
   <time name="dav">    0.97    0.97</time>
   <time name="total">    0.97    0.98</time>
   <energy>
    <i name="e_fr_energy">    -34.16302178 </i>
    <i name="e_wo_entrp">    -34.16302178 </i>
    <i name="e_0_energy">    -34.16302178 </i>
   </energy>
  </scstep>
  <scstep>
   <time name="dav">    0.77    0.78</time>
   <time name="total">    0.77    0.79</time>
   <energy>
    <i name="e_fr_energy">    -36.12173756 </i>
    <i name="e_wo_entrp">    -36.12173756 </i>
    <i name="e_0_energy">    -36.12173756 </i>
   </energy>
  </scstep>
  <scstep>
   <time name="dav">    0.97    0.97</time>
   <time name="total">    1.20    1.21</time>
   <energy>
    <i name="e_fr_energy">    -36.17958441 </i>
    <i name="e_wo_entrp">    -36.17958441 </i>
    <i name="e_0_energy">    -36.17958441 </i>
   </energy>
  </scstep>
  <scstep>
   <time name="dav">    0.84    0.84</time>
   <time name="total">    2.86    2.87</time>
   <energy>
    <i name="e_fr_energy">    -32.81709501 </i>
    <i name="e_wo_entrp">    -32.81709501 </i>
    <i name="e_0_energy">    -32.81709501 </i>
   </energy>
  </scstep>
  <scstep>
   <time name="dav">    1.07    1.07</time>
   <time name="total">    3.08    3.09</time>
   <energy>
    <i name="e_fr_energy">    -32.07618856 </i>
    <i name="e_wo_entrp">    -32.07618856 </i>
    <i name="e_0_energy">    -32.07618856 </i>
   </energy>
  </scstep>
  <scstep>
   <time name="dav">    0.89    0.89</time>
   <time name="total">    2.91    2.92</time>
   <energy>
    <i name="e_fr_energy">    -31.95319198 </i>
    <i name="e_wo_entrp">    -31.95319198 </i>
    <i name="e_0_energy">    -31.95319198 </i>
   </energy>
  </scstep>
  <scstep>
   <time name="dav">    0.84    0.84</time>
   <time name="total">    2.85    2.87</time>
   <energy>
    <i name="e_fr_energy">    -31.94904856 </i>
    <i name="e_wo_entrp">    -31.94904856 </i>
    <i name="e_0_energy">    -31.94904856 </i>
   </energy>
  </scstep>
  <scstep>
   <time name="dav">    0.79    0.79</time>
   <time name="total">    2.80    2.81</time>
   <energy>
    <i name="e_fr_energy">    -31.95101804 </i>
    <i name="e_wo_entrp">    -31.95101804 </i>
    <i name="e_0_energy">    -31.95101804 </i>
   </energy>
  </scstep>
  <scstep>
   <time name="dav">    0.86    0.86</time>
   <time name="total">    2.84    2.85</time>
   <energy>
    <i name="e_fr_energy">    -31.95132250 </i>
    <i name="e_wo_entrp">    -31.95132250 </i>
    <i name="e_0_energy">    -31.95132250 </i>
   </energy>
  </scstep>
  <scstep>
   <time name="dav">    0.80    0.80</time>
   <time name="total">    2.78    2.80</time>
   <energy>
    <i name="e_fr_energy">    -31.95568005 </i>
    <i name="e_wo_entrp">    -31.95568005 </i>
    <i name="e_0_energy">    -31.95568005 </i>
   </energy>
  </scstep>
  <scstep>
   <time name="dav">    0.80    0.80</time>
   <time name="total">    2.76    2.77</time>
   <energy>
    <i name="e_fr_energy">    -31.95870606 </i>
    <i name="e_wo_entrp">    -31.95870606 </i>
    <i name="e_0_energy">    -31.95870606 </i>
   </energy>
  </scstep>
  <scstep>
   <time name="dav">    0.85    0.85</time>
   <time name="total">    2.81    2.82</time>
   <energy>
    <i name="e_fr_energy">    -31.95967488 </i>
    <i name="e_wo_entrp">    -31.95967488 </i>
    <i name="e_0_energy">    -31.95967488 </i>
   </energy>
  </scstep>
  <scstep>
   <time name="dav">    0.91    0.91</time>
   <time name="total">    2.87    2.88</time>
   <energy>
    <i name="e_fr_energy">    -31.95987777 </i>
    <i name="e_wo_entrp">    -31.95987777 </i>
    <i name="e_0_energy">    -31.95987777 </i>
   </energy>
  </scstep>
  <scstep>
   <time name="dav">    0.79    0.79</time>
   <time name="total">    2.43    2.44</time>
   <energy>
    <i name="alphaZ">      1.18323955 </i>
    <i name="ewald">    172.18683896 </i>
    <i name="hartreedc">   -450.75293775 </i>
    <i name="XCdc">     39.18339883 </i>
    <i name="pawpsdc">    158.36271678 </i>
    <i name="pawaedc">   -161.06825976 </i>
    <i name="eentropy">      0.00000000 </i>
    <i name="bandstr">   -135.29752836 </i>
    <i name="atom">    344.24256285 </i>
    <i name="e_fr_energy">    -31.95996889 </i>
    <i name="e_wo_entrp">    -31.95996889 </i>
    <i name="e_0_energy">    -31.95996889 </i>
   </energy>
  </scstep>
  <parameters_embedded>
   <separator name="dft+d2" >
    <i type="logical" name="LVDW"> F  </i>
   </separator>
  </parameters_embedded>
  <structure>
   <crystal>
    <varray name="basis" >
     <v>       8.00000000       0.00000000       0.00000000 </v>
     <v>       0.00000000       8.00000000       0.00000000 </v>
     <v>       0.00000000       0.00000000       8.00000000 </v>
    </varray>
    <i name="volume">    512.00000000 </i>
    <varray name="rec_basis" >
     <v>       0.12500000       0.00000000       0.00000000 </v>
     <v>       0.00000000       0.12500000       0.00000000 </v>
     <v>       0.00000000       0.00000000       0.12500000 </v>
    </varray>
   </crystal>
   <varray name="positions" >
    <v>       0.00000000       0.11535400       0.15471187 </v>
    <v>       0.00000000       0.88464600       0.15471187 </v>
    <v>       0.00000000       0.11535400       0.84528813 </v>
    <v>       0.00000000       0.88464600       0.84528813 </v>
    <v>       0.00000000       0.00000000       0.08343500 </v>
    <v>       0.00000000       0.00000000       0.91656500 </v>
   </varray>
  </structure>
  <varray name="forces" >
   <v>       0.00000000       0.19784594       0.11222582 </v>
   <v>       0.00000000      -0.19784594       0.11222582 </v>
   <v>       0.00000000       0.19784594      -0.11222582 </v>
   <v>       0.00000000      -0.19784594      -0.11222582 </v>
   <v>       0.00000000       0.00000000      -0.29474383 </v>
   <v>       0.00000000       0.00000000       0.29474383 </v>
  </varray>
  <varray name="stress" >
   <v>      -0.18649706       0.00000000       0.00000000 </v>
   <v>       0.00000000       2.05474991       0.00000000 </v>
   <v>       0.00000000       0.00000000       0.16015375 </v>
  </varray>
  <energy>
   <i name="e_fr_energy">    -31.95996889 </i>
   <i name="e_wo_entrp">    -31.95996889 </i>
   <i name="e_0_energy">      0.00000000 </i>
  </energy>
  <time name="totalsc">   42.00   42.33</time>
 </calculation>
 <calculation>
  <scstep>
   <time name="dav">    0.79    0.79</time>
   <time name="total">    2.73    2.73</time>
   <energy>
    <i name="alphaZ">      1.18323955 </i>
    <i name="ewald">    172.27235170 </i>
    <i name="hartreedc">   -451.23210279 </i>
    <i name="XCdc">     39.15616457 </i>
    <i name="pawpsdc">    158.36117770 </i>
    <i name="pawaedc">   -161.06662837 </i>
    <i name="eentropy">      0.00000000 </i>
    <i name="bandstr">   -134.85145211 </i>
    <i name="atom">    344.24256285 </i>
    <i name="e_fr_energy">    -31.93468690 </i>
    <i name="e_wo_entrp">    -31.93468690 </i>
    <i name="e_0_energy">    -31.93468690 </i>
   </energy>
  </scstep>
  <scstep>
   <time name="dav">    0.83    0.83</time>
   <time name="total">    2.80    2.81</time>
   <energy>
    <i name="e_fr_energy">    -31.93421763 </i>
    <i name="e_wo_entrp">    -31.93421763 </i>
    <i name="e_0_energy">    -31.93421763 </i>
   </energy>
  </scstep>
  <scstep>
   <time name="dav">    0.78    0.78</time>
   <time name="total">    2.75    2.77</time>
   <energy>
    <i name="e_fr_energy">    -31.93300892 </i>
    <i name="e_wo_entrp">    -31.93300892 </i>
    <i name="e_0_energy">    -31.93300892 </i>
   </energy>
  </scstep>
  <scstep>
   <time name="dav">    0.89    0.89</time>
   <time name="total">    2.85    2.87</time>
   <energy>
    <i name="e_fr_energy">    -31.93295851 </i>
    <i name="e_wo_entrp">    -31.93295851 </i>
    <i name="e_0_energy">    -31.93295851 </i>
   </energy>
  </scstep>
  <scstep>
   <time name="dav">    0.78    0.78</time>
   <time name="total">    2.42    2.43</time>
   <energy>
    <i name="alphaZ">      1.18323955 </i>
    <i name="ewald">    172.27235170 </i>
    <i name="hartreedc">   -451.02233763 </i>
    <i name="XCdc">     39.12624436 </i>
    <i name="pawpsdc">    158.09346716 </i>
    <i name="pawaedc">   -160.79714376 </i>
    <i name="eentropy">      0.00000000 </i>
    <i name="bandstr">   -135.03134435 </i>
    <i name="atom">    344.24256285 </i>
    <i name="e_fr_energy">    -31.93296011 </i>
    <i name="e_wo_entrp">    -31.93296011 </i>
    <i name="e_0_energy">    -31.93296011 </i>
   </energy>
  </scstep>
  <structure>
   <crystal>
    <varray name="basis" >
     <v>       8.00000000       0.00000000       0.00000000 </v>
     <v>       0.00000000       8.00000000       0.00000000 </v>
     <v>       0.00000000       0.00000000       8.00000000 </v>
    </varray>
    <i name="volume">    512.00000000 </i>
    <varray name="rec_basis" >
     <v>       0.12500000       0.00000000       0.00000000 </v>
     <v>       0.00000000       0.12500000       0.00000000 </v>
     <v>       0.00000000       0.00000000       0.12500000 </v>
    </varray>
   </crystal>
   <varray name="positions" >
    <v>       0.00000000       0.11654708       0.15538863 </v>
    <v>       0.00000000       0.88345292       0.15538863 </v>
    <v>       0.00000000       0.11654708       0.84461137 </v>
    <v>       0.00000000       0.88345292       0.84461137 </v>
    <v>       0.00000000       0.00000000       0.08165760 </v>
    <v>       0.00000000       0.00000000       0.91834240 </v>
   </varray>
  </structure>
  <varray name="forces" >
   <v>       0.00000000      -0.27999157      -0.21682803 </v>
   <v>       0.00000000       0.27999157      -0.21682803 </v>
   <v>       0.00000000      -0.27999157       0.21682803 </v>
   <v>       0.00000000       0.27999157       0.21682803 </v>
   <v>       0.00000000       0.00000000       2.01982575 </v>
   <v>       0.00000000       0.00000000      -2.01982575 </v>
  </varray>
  <varray name="stress" >
   <v>      -0.11105759       0.00000000       0.00000000 </v>
   <v>       0.00000000      -3.41896173       0.00000000 </v>
   <v>       0.00000000       0.00000000       4.60587183 </v>
  </varray>
  <energy>
   <i name="e_fr_energy">    -31.93296011 </i>
   <i name="e_wo_entrp">    -31.93296011 </i>
   <i name="e_0_energy">      0.00000000 </i>
  </energy>
  <time name="totalsc">   17.19   17.27</time>
 </calculation>
 <calculation>
  <scstep>
   <time name="dav">    0.75    0.75</time>
   <time name="total">    2.55    2.55</time>
   <energy>
    <i name="alphaZ">      1.18323955 </i>
    <i name="ewald">    172.18293974 </i>
    <i name="hartreedc">   -450.62894082 </i>
    <i name="XCdc">     39.14695838 </i>
    <i name="pawpsdc">    158.10270798 </i>
    <i name="pawaedc">   -160.80656937 </i>
    <i name="eentropy">      0.00000000 </i>
    <i name="bandstr">   -135.38571473 </i>
    <i name="atom">    344.24256285 </i>
    <i name="e_fr_energy">    -31.96281641 </i>
    <i name="e_wo_entrp">    -31.96281641 </i>
    <i name="e_0_energy">    -31.96281641 </i>
   </energy>
  </scstep>
  <scstep>
   <time name="dav">    0.74    0.74</time>
   <time name="total">    2.55    2.55</time>
   <energy>
    <i name="e_fr_energy">    -31.96263115 </i>
    <i name="e_wo_entrp">    -31.96263115 </i>
    <i name="e_0_energy">    -31.96263115 </i>
   </energy>
  </scstep>
  <scstep>
   <time name="dav">    0.74    0.75</time>
   <time name="total">    2.57    2.59</time>
   <energy>
    <i name="e_fr_energy">    -31.96190398 </i>
    <i name="e_wo_entrp">    -31.96190398 </i>
    <i name="e_0_energy">    -31.96190398 </i>
   </energy>
  </scstep>
  <scstep>
   <time name="dav">    0.84    0.84</time>
   <time name="total">    2.40    2.41</time>
   <energy>
    <i name="alphaZ">      1.18323955 </i>
    <i name="ewald">    172.18293974 </i>
    <i name="hartreedc">   -450.78739998 </i>
    <i name="XCdc">     39.17102253 </i>
    <i name="pawpsdc">    158.25209719 </i>
    <i name="pawaedc">   -160.95691973 </i>
    <i name="eentropy">      0.00000000 </i>
    <i name="bandstr">   -135.24939124 </i>
    <i name="atom">    344.24256285 </i>
    <i name="e_fr_energy">    -31.96184909 </i>
    <i name="e_wo_entrp">    -31.96184909 </i>
    <i name="e_0_energy">    -31.96184909 </i>
   </energy>
  </scstep>
  <structure>
   <crystal>
    <varray name="basis" >
     <v>       8.00000000       0.00000000       0.00000000 </v>
     <v>       0.00000000       8.00000000       0.00000000 </v>
     <v>       0.00000000       0.00000000       8.00000000 </v>
    </varray>
    <i name="volume">    512.00000000 </i>
    <varray name="rec_basis" >
     <v>       0.12500000       0.00000000       0.00000000 </v>
     <v>       0.00000000       0.12500000       0.00000000 </v>
     <v>       0.00000000       0.00000000       0.12500000 </v>
    </varray>
   </crystal>
   <varray name="positions" >
    <v>       0.00000000       0.11559428       0.15484817 </v>
    <v>       0.00000000       0.88440572       0.15484817 </v>
    <v>       0.00000000       0.11559428       0.84515183 </v>
    <v>       0.00000000       0.88440572       0.84515183 </v>
    <v>       0.00000000       0.00000000       0.08307703 </v>
    <v>       0.00000000       0.00000000       0.91692297 </v>
   </varray>
  </structure>
  <varray name="forces" >
   <v>       0.00000000       0.09765392       0.04307264 </v>
   <v>       0.00000000      -0.09765392       0.04307264 </v>
   <v>       0.00000000       0.09765392      -0.04307264 </v>
   <v>       0.00000000      -0.09765392      -0.04307264 </v>
   <v>       0.00000000       0.00000000       0.15331380 </v>
   <v>       0.00000000       0.00000000      -0.15331380 </v>
  </varray>
  <varray name="stress" >
   <v>      -0.12058106       0.00000000       0.00000000 </v>
   <v>       0.00000000       0.96966011       0.00000000 </v>
   <v>       0.00000000       0.00000000       0.99418749 </v>
  </varray>
  <energy>
   <i name="e_fr_energy">    -31.96184909 </i>
   <i name="e_wo_entrp">    -31.96184909 </i>
   <i name="e_0_energy">      0.00000000 </i>
  </energy>
  <time name="totalsc">   13.17   13.25</time>
  <eigenvalues>
   <array>
    <dimension dim="1">band</dimension>
    <dimension dim="2">kpoint</dimension>
    <dimension dim="3">spin</dimension>
    <field>eigene</field>
    <field>occ</field>
    <set>
     <set comment="spin 1">
      <set comment="kpoint 1">
       <r>  -18.4234    1.0000 </r>
       <r>  -13.8422    1.0000 </r>
       <r>  -11.0628    1.0000 </r>
       <r>   -9.8101    1.0000 </r>
       <r>   -8.0974    1.0000 </r>
       <r>   -6.3888    1.0000 </r>
       <r>   -0.6534    0.0000 </r>
       <r>   -0.5063    0.0000 </r>
       <r>    1.2681    0.0000 </r>
       <r>    1.3274    0.0000 </r>
      </set>
     </set>
    </set>
   </array>
  </eigenvalues>
  <separator name="orbital magnetization" >
   <v name="MAGDIPOLOUT">      0.00000000      0.00000000      0.00000000</v>
  </separator>
  <dos>
   <i name="efermi">     -5.46022468 </i>
   <total>
    <array>
     <dimension dim="1">gridpoints</dimension>
     <dimension dim="2">spin</dimension>
     <field>energy</field>
     <field>total</field>
     <field>integrated</field>
     <set>
      <set comment="spin 1">
       <r>   -20.4234     0.0000     0.0000 </r>
       <r>   -20.3442     0.0000     0.0000 </r>
       <r>   -20.2651     0.0000     0.0000 </r>
       <r>   -20.1859     0.0000     0.0000 </r>
       <r>   -20.1067     0.0000     0.0000 </r>
       <r>   -20.0275     0.0000     0.0000 </r>
       <r>   -19.9484     0.0000     0.0000 </r>
       <r>   -19.8692     0.0000     0.0000 </r>
       <r>   -19.7900     0.0000     0.0000 </r>
       <r>   -19.7109     0.0000     0.0000 </r>
       <r>   -19.6317     0.0000     0.0000 </r>
       <r>   -19.5525     0.0000     0.0000 </r>
       <r>   -19.4734     0.0000     0.0000 </r>
       <r>   -19.3942     0.0000     0.0000 </r>
       <r>   -19.3150     0.0000     0.0000 </r>
       <r>   -19.2359     0.0000     0.0000 </r>
       <r>   -19.1567     0.0000     0.0000 </r>
       <r>   -19.0775     0.0000     0.0000 </r>
       <r>   -18.9983     0.0006     0.0000 </r>
       <r>   -18.9192     0.0051     0.0005 </r>
       <r>   -18.8400     0.0349     0.0032 </r>
       <r>   -18.7608     0.1744     0.0170 </r>
       <r>   -18.6817     0.6414     0.0678 </r>
       <r>   -18.6025     1.7373     0.2053 </r>
       <r>   -18.5233     3.4665     0.4798 </r>
       <r>   -18.4442     5.0964     0.8833 </r>
       <r>   -18.3650     5.5213     1.3204 </r>
       <r>   -18.2858     4.4078     1.6693 </r>
       <r>   -18.2067     2.5930     1.8746 </r>
       <r>   -18.1275     1.1238     1.9636 </r>
       <r>   -18.0483     0.3588     1.9920 </r>
       <r>   -17.9691     0.0844     1.9987 </r>
       <r>   -17.8900     0.0146     1.9998 </r>
       <r>   -17.8108     0.0019     2.0000 </r>
       <r>   -17.7316     0.0002     2.0000 </r>
       <r>   -17.6525     0.0000     2.0000 </r>
       <r>   -17.5733     0.0000     2.0000 </r>
       <r>   -17.4941     0.0000     2.0000 </r>
       <r>   -17.4150     0.0000     2.0000 </r>
       <r>   -17.3358     0.0000     2.0000 </r>
       <r>   -17.2566     0.0000     2.0000 </r>
       <r>   -17.1774     0.0000     2.0000 </r>
       <r>   -17.0983     0.0000     2.0000 </r>
       <r>   -17.0191     0.0000     2.0000 </r>
       <r>   -16.9399     0.0000     2.0000 </r>
       <r>   -16.8608     0.0000     2.0000 </r>
       <r>   -16.7816     0.0000     2.0000 </r>
       <r>   -16.7024     0.0000     2.0000 </r>
       <r>   -16.6233     0.0000     2.0000 </r>
       <r>   -16.5441     0.0000     2.0000 </r>
       <r>   -16.4649     0.0000     2.0000 </r>
       <r>   -16.3858     0.0000     2.0000 </r>
       <r>   -16.3066     0.0000     2.0000 </r>
       <r>   -16.2274     0.0000     2.0000 </r>
       <r>   -16.1482     0.0000     2.0000 </r>
       <r>   -16.0691     0.0000     2.0000 </r>
       <r>   -15.9899     0.0000     2.0000 </r>
       <r>   -15.9107     0.0000     2.0000 </r>
       <r>   -15.8316     0.0000     2.0000 </r>
       <r>   -15.7524     0.0000     2.0000 </r>
       <r>   -15.6732     0.0000     2.0000 </r>
       <r>   -15.5941     0.0000     2.0000 </r>
       <r>   -15.5149     0.0000     2.0000 </r>
       <r>   -15.4357     0.0000     2.0000 </r>
       <r>   -15.3566     0.0000     2.0000 </r>
       <r>   -15.2774     0.0000     2.0000 </r>
       <r>   -15.1982     0.0000     2.0000 </r>
       <r>   -15.1190     0.0000     2.0000 </r>
       <r>   -15.0399     0.0000     2.0000 </r>
       <r>   -14.9607     0.0000     2.0000 </r>
       <r>   -14.8815     0.0000     2.0000 </r>
       <r>   -14.8024     0.0000     2.0000 </r>
       <r>   -14.7232     0.0000     2.0000 </r>
       <r>   -14.6440     0.0000     2.0000 </r>
       <r>   -14.5649     0.0000     2.0000 </r>
       <r>   -14.4857     0.0001     2.0000 </r>
       <r>   -14.4065     0.0008     2.0001 </r>
       <r>   -14.3274     0.0068     2.0006 </r>
       <r>   -14.2482     0.0441     2.0041 </r>
       <r>   -14.1690     0.2115     2.0208 </r>
       <r>   -14.0898     0.7464     2.0799 </r>
       <r>   -14.0107     1.9402     2.2335 </r>
       <r>   -13.9315     3.7159     2.5277 </r>
       <r>   -13.8523     5.2437     2.9429 </r>
       <r>   -13.7732     5.4527     3.3745 </r>
       <r>   -13.6940     4.1783     3.7053 </r>
       <r>   -13.6148     2.3592     3.8921 </r>
       <r>   -13.5357     0.9814     3.9698 </r>
       <r>   -13.4565     0.3007     3.9936 </r>
       <r>   -13.3773     0.0679     3.9990 </r>
       <r>   -13.2981     0.0113     3.9999 </r>
       <r>   -13.2190     0.0014     4.0000 </r>
       <r>   -13.1398     0.0001     4.0000 </r>
       <r>   -13.0606     0.0000     4.0000 </r>
       <r>   -12.9815     0.0000     4.0000 </r>
       <r>   -12.9023     0.0000     4.0000 </r>
       <r>   -12.8231     0.0000     4.0000 </r>
       <r>   -12.7440     0.0000     4.0000 </r>
       <r>   -12.6648     0.0000     4.0000 </r>
       <r>   -12.5856     0.0000     4.0000 </r>
       <r>   -12.5065     0.0000     4.0000 </r>
       <r>   -12.4273     0.0000     4.0000 </r>
       <r>   -12.3481     0.0000     4.0000 </r>
       <r>   -12.2689     0.0000     4.0000 </r>
       <r>   -12.1898     0.0000     4.0000 </r>
       <r>   -12.1106     0.0000     4.0000 </r>
       <r>   -12.0314     0.0000     4.0000 </r>
       <r>   -11.9523     0.0000     4.0000 </r>
       <r>   -11.8731     0.0000     4.0000 </r>
       <r>   -11.7939     0.0000     4.0000 </r>
       <r>   -11.7148     0.0000     4.0000 </r>
       <r>   -11.6356     0.0006     4.0001 </r>
       <r>   -11.5564     0.0054     4.0005 </r>
       <r>   -11.4773     0.0366     4.0034 </r>
       <r>   -11.3981     0.1815     4.0178 </r>
       <r>   -11.3189     0.6619     4.0702 </r>
       <r>   -11.2397     1.7778     4.2109 </r>
       <r>   -11.1606     3.5177     4.4894 </r>
       <r>   -11.0814     5.1285     4.8954 </r>
       <r>   -11.0022     5.5096     5.3316 </r>
       <r>   -10.9231     4.3618     5.6769 </r>
       <r>   -10.8439     2.5445     5.8784 </r>
       <r>   -10.7647     1.0936     5.9650 </r>
       <r>   -10.6856     0.3462     5.9924 </r>
       <r>   -10.6064     0.0807     5.9988 </r>
       <r>   -10.5272     0.0139     5.9998 </r>
       <r>   -10.4481     0.0018     6.0000 </r>
       <r>   -10.3689     0.0011     6.0001 </r>
       <r>   -10.2897     0.0078     6.0007 </r>
       <r>   -10.2105     0.0497     6.0046 </r>
       <r>   -10.1314     0.2332     6.0231 </r>
       <r>   -10.0522     0.8057     6.0869 </r>
       <r>    -9.9730     2.0504     6.2492 </r>
       <r>    -9.8939     3.8440     6.5535 </r>
       <r>    -9.8147     5.3103     6.9739 </r>
       <r>    -9.7355     5.4057     7.4019 </r>
       <r>    -9.6564     4.0550     7.7229 </r>
       <r>    -9.5772     2.2414     7.9004 </r>
       <r>    -9.4980     0.9127     7.9727 </r>
       <r>    -9.4188     0.2738     7.9943 </r>
       <r>    -9.3397     0.0605     7.9991 </r>
       <r>    -9.2605     0.0098     7.9999 </r>
       <r>    -9.1813     0.0012     8.0000 </r>
       <r>    -9.1022     0.0001     8.0000 </r>
       <r>    -9.0230     0.0000     8.0000 </r>
       <r>    -8.9438     0.0000     8.0000 </r>
       <r>    -8.8647     0.0000     8.0000 </r>
       <r>    -8.7855     0.0000     8.0000 </r>
       <r>    -8.7063     0.0002     8.0000 </r>
       <r>    -8.6272     0.0021     8.0002 </r>
       <r>    -8.5480     0.0159     8.0014 </r>
       <r>    -8.4688     0.0908     8.0086 </r>
       <r>    -8.3896     0.3806     8.0388 </r>
       <r>    -8.3105     1.1756     8.1318 </r>
       <r>    -8.2313     2.6747     8.3436 </r>
       <r>    -8.1521     4.4834     8.6985 </r>
       <r>    -8.0730     5.5379     9.1370 </r>
       <r>    -7.9938     5.0406     9.5360 </r>
       <r>    -7.9146     3.3809     9.8037 </r>
       <r>    -7.8355     1.6708     9.9360 </r>
       <r>    -7.7563     0.6083     9.9841 </r>
       <r>    -7.6771     0.1631     9.9970 </r>
       <r>    -7.5980     0.0322     9.9996 </r>
       <r>    -7.5188     0.0047    10.0000 </r>
       <r>    -7.4396     0.0005    10.0000 </r>
       <r>    -7.3604     0.0000    10.0000 </r>
       <r>    -7.2813     0.0000    10.0000 </r>
       <r>    -7.2021     0.0000    10.0000 </r>
       <r>    -7.1229     0.0000    10.0000 </r>
       <r>    -7.0438     0.0000    10.0000 </r>
       <r>    -6.9646     0.0005    10.0000 </r>
       <r>    -6.8854     0.0050    10.0004 </r>
       <r>    -6.8063     0.0343    10.0032 </r>
       <r>    -6.7271     0.1719    10.0168 </r>
       <r>    -6.6479     0.6340    10.0670 </r>
       <r>    -6.5688     1.7225    10.2033 </r>
       <r>    -6.4896     3.4476    10.4763 </r>
       <r>    -6.4104     5.0843    10.8788 </r>
       <r>    -6.3312     5.5252    11.3162 </r>
       <r>    -6.2521     4.4246    11.6665 </r>
       <r>    -6.1729     2.6109    11.8732 </r>
       <r>    -6.0937     1.1351    11.9631 </r>
       <r>    -6.0146     0.3635    11.9919 </r>
       <r>    -5.9354     0.0857    11.9987 </r>
       <r>    -5.8562     0.0149    11.9998 </r>
       <r>    -5.7771     0.0019    12.0000 </r>
       <r>    -5.6979     0.0002    12.0000 </r>
       <r>    -5.6187     0.0000    12.0000 </r>
       <r>    -5.5395     0.0000    12.0000 </r>
       <r>    -5.4604     0.0000    12.0000 </r>
       <r>    -5.3812     0.0000    12.0000 </r>
       <r>    -5.3020     0.0000    12.0000 </r>
       <r>    -5.2229     0.0000    12.0000 </r>
       <r>    -5.1437     0.0000    12.0000 </r>
       <r>    -5.0645     0.0000    12.0000 </r>
       <r>    -4.9854     0.0000    12.0000 </r>
       <r>    -4.9062     0.0000    12.0000 </r>
       <r>    -4.8270     0.0000    12.0000 </r>
       <r>    -4.7479     0.0000    12.0000 </r>
       <r>    -4.6687     0.0000    12.0000 </r>
       <r>    -4.5895     0.0000    12.0000 </r>
       <r>    -4.5103     0.0000    12.0000 </r>
       <r>    -4.4312     0.0000    12.0000 </r>
       <r>    -4.3520     0.0000    12.0000 </r>
       <r>    -4.2728     0.0000    12.0000 </r>
       <r>    -4.1937     0.0000    12.0000 </r>
       <r>    -4.1145     0.0000    12.0000 </r>
       <r>    -4.0353     0.0000    12.0000 </r>
       <r>    -3.9562     0.0000    12.0000 </r>
       <r>    -3.8770     0.0000    12.0000 </r>
       <r>    -3.7978     0.0000    12.0000 </r>
       <r>    -3.7187     0.0000    12.0000 </r>
       <r>    -3.6395     0.0000    12.0000 </r>
       <r>    -3.5603     0.0000    12.0000 </r>
       <r>    -3.4811     0.0000    12.0000 </r>
       <r>    -3.4020     0.0000    12.0000 </r>
       <r>    -3.3228     0.0000    12.0000 </r>
       <r>    -3.2436     0.0000    12.0000 </r>
       <r>    -3.1645     0.0000    12.0000 </r>
       <r>    -3.0853     0.0000    12.0000 </r>
       <r>    -3.0061     0.0000    12.0000 </r>
       <r>    -2.9270     0.0000    12.0000 </r>
       <r>    -2.8478     0.0000    12.0000 </r>
       <r>    -2.7686     0.0000    12.0000 </r>
       <r>    -2.6895     0.0000    12.0000 </r>
       <r>    -2.6103     0.0000    12.0000 </r>
       <r>    -2.5311     0.0000    12.0000 </r>
       <r>    -2.4519     0.0000    12.0000 </r>
       <r>    -2.3728     0.0000    12.0000 </r>
       <r>    -2.2936     0.0000    12.0000 </r>
       <r>    -2.2144     0.0000    12.0000 </r>
       <r>    -2.1353     0.0000    12.0000 </r>
       <r>    -2.0561     0.0000    12.0000 </r>
       <r>    -1.9769     0.0000    12.0000 </r>
       <r>    -1.8978     0.0000    12.0000 </r>
       <r>    -1.8186     0.0000    12.0000 </r>
       <r>    -1.7394     0.0000    12.0000 </r>
       <r>    -1.6602     0.0000    12.0000 </r>
       <r>    -1.5811     0.0000    12.0000 </r>
       <r>    -1.5019     0.0000    12.0000 </r>
       <r>    -1.4227     0.0000    12.0000 </r>
       <r>    -1.3436     0.0000    12.0000 </r>
       <r>    -1.2644     0.0002    12.0000 </r>
       <r>    -1.1852     0.0020    12.0002 </r>
       <r>    -1.1061     0.0154    12.0014 </r>
       <r>    -1.0269     0.0898    12.0085 </r>
       <r>    -0.9477     0.3882    12.0392 </r>
       <r>    -0.8686     1.2557    12.1387 </r>
       <r>    -0.7894     3.0702    12.3817 </r>
       <r>    -0.7102     5.7556    12.8374 </r>
       <r>    -0.6310     8.4140    13.5035 </r>
       <r>    -0.5519     9.7390    14.2746 </r>
       <r>    -0.4727     8.9923    14.9865 </r>
       <r>    -0.3935     6.5956    15.5086 </r>
       <r>    -0.3144     3.7909    15.8088 </r>
       <r>    -0.2352     1.6786    15.9417 </r>
       <r>    -0.1560     0.5640    15.9863 </r>
       <r>    -0.0769     0.1422    15.9976 </r>
       <r>     0.0023     0.0267    15.9997 </r>
       <r>     0.0815     0.0037    16.0000 </r>
       <r>     0.1606     0.0004    16.0000 </r>
       <r>     0.2398     0.0000    16.0000 </r>
       <r>     0.3190     0.0000    16.0000 </r>
       <r>     0.3982     0.0000    16.0000 </r>
       <r>     0.4773     0.0000    16.0000 </r>
       <r>     0.5565     0.0000    16.0000 </r>
       <r>     0.6357     0.0001    16.0000 </r>
       <r>     0.7148     0.0012    16.0001 </r>
       <r>     0.7940     0.0108    16.0010 </r>
       <r>     0.8732     0.0705    16.0065 </r>
       <r>     0.9523     0.3411    16.0335 </r>
       <r>     1.0315     1.2271    16.1307 </r>
       <r>     1.1107     3.2871    16.3909 </r>
       <r>     1.1898     6.5634    16.9106 </r>
       <r>     1.2690     9.7775    17.6846 </r>
       <r>     1.3482    10.8725    18.5454 </r>
       <r>     1.4274     9.0263    19.2600 </r>
       <r>     1.5065     5.5930    19.7028 </r>
       <r>     1.5857     2.5850    19.9075 </r>
       <r>     1.6649     0.8904    19.9779 </r>
       <r>     1.7440     0.2282    19.9960 </r>
       <r>     1.8232     0.0435    19.9995 </r>
       <r>     1.9024     0.0062    19.9999 </r>
       <r>     1.9815     0.0006    20.0000 </r>
       <r>     2.0607     0.0000    20.0000 </r>
       <r>     2.1399     0.0000    20.0000 </r>
       <r>     2.2191     0.0000    20.0000 </r>
       <r>     2.2982     0.0000    20.0000 </r>
       <r>     2.3774     0.0000    20.0000 </r>
       <r>     2.4566     0.0000    20.0000 </r>
       <r>     2.5357     0.0000    20.0000 </r>
       <r>     2.6149     0.0000    20.0000 </r>
       <r>     2.6941     0.0000    20.0000 </r>
       <r>     2.7732     0.0000    20.0000 </r>
       <r>     2.8524     0.0000    20.0000 </r>
       <r>     2.9316     0.0000    20.0000 </r>
       <r>     3.0107     0.0000    20.0000 </r>
       <r>     3.0899     0.0000    20.0000 </r>
       <r>     3.1691     0.0000    20.0000 </r>
       <r>     3.2483     0.0000    20.0000 </r>
       <r>     3.3274     0.0000    20.0000 </r>
      </set>
     </set>
    </array>
   </total>
  </dos>
 </calculation>
 <structure name="finalpos" >
  <crystal>
   <varray name="basis" >
    <v>       8.00000000       0.00000000       0.00000000 </v>
    <v>       0.00000000       8.00000000       0.00000000 </v>
    <v>       0.00000000       0.00000000       8.00000000 </v>
   </varray>
   <i name="volume">    512.00000000 </i>
   <varray name="rec_basis" >
    <v>       0.12500000       0.00000000       0.00000000 </v>
    <v>       0.00000000       0.12500000       0.00000000 </v>
    <v>       0.00000000       0.00000000       0.12500000 </v>
   </varray>
  </crystal>
  <varray name="positions" >
   <v>       0.00000000       0.11559428       0.15484817 </v>
   <v>       0.00000000       0.88440572       0.15484817 </v>
   <v>       0.00000000       0.11559428       0.84515183 </v>
   <v>       0.00000000       0.88440572       0.84515183 </v>
   <v>       0.00000000       0.00000000       0.08307703 </v>
   <v>       0.00000000       0.00000000       0.91692297 </v>
  </varray>
 </structure>
</modeling>
