   5   5   0   0
  0.1024000E+03  0.8000000E-09  0.8000000E-09  0.8000000E-09  0.5000000E-15
  1.000000000000000E-004
  CAR 
 unknown system                          
      2.18150866    -24.99028623  301     -5.06394951      1.00000000
    -24.990  0.0000E+00  0.0000E+00
    -24.900  0.0000E+00  0.0000E+00
    -24.809  0.0000E+00  0.0000E+00
    -24.719  0.0000E+00  0.0000E+00
    -24.628  0.0000E+00  0.0000E+00
    -24.537  0.0000E+00  0.0000E+00
    -24.447  0.0000E+00  0.0000E+00
    -24.356  0.0000E+00  0.0000E+00
    -24.266  0.0000E+00  0.0000E+00
    -24.175  0.0000E+00  0.0000E+00
    -24.085  0.1115E-13  0.1010E-14
    -23.994  0.1394E-11  0.1273E-12
    -23.903  0.1167E-09  0.1069E-10
    -23.813  0.6523E-08  0.6015E-09
    -23.722  0.2438E-06  0.2268E-07
    -23.632  0.6096E-05  0.5748E-06
    -23.541  0.1021E-03  0.9819E-05
    -23.451  0.1145E-02  0.1136E-03
    -23.360  0.8623E-02  0.8946E-03
    -23.269  0.4358E-01  0.4842E-02
    -23.179  0.1480E+00  0.1825E-01
    -23.088  0.3378E+00  0.4884E-01
    -22.998  0.5187E+00  0.9583E-01
    -22.907  0.5358E+00  0.1444E+00
    -22.817  0.3723E+00  0.1781E+00
    -22.726  0.1740E+00  0.1938E+00
    -22.635  0.5469E-01  0.1988E+00
    -22.545  0.1155E-01  0.1998E+00
    -22.454  0.1637E-02  0.2000E+00
    -22.364  0.1557E-03  0.2000E+00
    -22.273  0.9930E-05  0.2000E+00
    -22.183  0.4241E-06  0.2000E+00
    -22.092  0.1212E-07  0.2000E+00
    -22.001  0.2315E-09  0.2000E+00
    -21.911  0.2955E-11  0.2000E+00
    -21.820  0.2550E-13  0.2000E+00
    -21.730  0.0000E+00  0.2000E+00
    -21.639  0.0000E+00  0.2000E+00
    -21.549  0.0000E+00  0.2000E+00
    -21.458  0.0000E+00  0.2000E+00
    -21.367  0.0000E+00  0.2000E+00
    -21.277  0.0000E+00  0.2000E+00
    -21.186  0.0000E+00  0.2000E+00
    -21.096  0.0000E+00  0.2000E+00
    -21.005  0.3677E-15  0.2000E+00
    -20.915  0.8973E-13  0.2000E+00
    -20.824  0.1038E-10  0.2000E+00
    -20.733  0.8017E-09  0.2000E+00
    -20.643  0.4138E-07  0.2000E+00
    -20.552  0.1428E-05  0.2000E+00
    -20.462  0.3299E-04  0.2000E+00
    -20.371  0.5102E-03  0.2000E+00
    -20.281  0.5290E-02  0.2005E+00
    -20.190  0.3680E-01  0.2039E+00
    -20.099  0.1719E+00  0.2194E+00
    -20.009  0.5395E+00  0.2683E+00
    -19.918  0.1139E+01  0.3714E+00
    -19.828  0.1616E+01  0.5178E+00
    -19.737  0.1543E+01  0.6576E+00
    -19.646  0.9915E+00  0.7474E+00
    -19.556  0.4284E+00  0.7862E+00
    -19.465  0.1244E+00  0.7975E+00
    -19.375  0.2429E-01  0.7997E+00
    -19.284  0.3182E-02  0.8000E+00
    -19.194  0.2796E-03  0.8000E+00
    -19.103  0.1647E-04  0.8000E+00
    -19.012  0.6496E-06  0.8000E+00
    -18.922  0.1714E-07  0.8000E+00
    -18.831  0.3024E-09  0.8000E+00
    -18.741  0.3563E-11  0.8000E+00
    -18.650  0.2795E-13  0.8000E+00
    -18.560  0.0000E+00  0.8000E+00
    -18.469  0.0000E+00  0.8000E+00
    -18.378  0.0000E+00  0.8000E+00
    -18.288  0.0000E+00  0.8000E+00
    -18.197  0.0000E+00  0.8000E+00
    -18.107  0.0000E+00  0.8000E+00
    -18.016  0.0000E+00  0.8000E+00
    -17.926  0.0000E+00  0.8000E+00
    -17.835  0.0000E+00  0.8000E+00
    -17.744  0.0000E+00  0.8000E+00
    -17.654  0.0000E+00  0.8000E+00
    -17.563  0.0000E+00  0.8000E+00
    -17.473  0.0000E+00  0.8000E+00
    -17.382  0.0000E+00  0.8000E+00
    -17.292  0.0000E+00  0.8000E+00
    -17.201  0.0000E+00  0.8000E+00
    -17.110  0.0000E+00  0.8000E+00
    -17.020  0.0000E+00  0.8000E+00
    -16.929  0.0000E+00  0.8000E+00
    -16.839  0.0000E+00  0.8000E+00
    -16.748  0.0000E+00  0.8000E+00
    -16.658  0.0000E+00  0.8000E+00
    -16.567  0.0000E+00  0.8000E+00
    -16.476  0.0000E+00  0.8000E+00
    -16.386  0.0000E+00  0.8000E+00
    -16.295  0.0000E+00  0.8000E+00
    -16.205  0.0000E+00  0.8000E+00
    -16.114  0.0000E+00  0.8000E+00
    -16.024  0.0000E+00  0.8000E+00
    -15.933  0.0000E+00  0.8000E+00
    -15.842  0.0000E+00  0.8000E+00
    -15.752  0.0000E+00  0.8000E+00
    -15.661  0.0000E+00  0.8000E+00
    -15.571  0.0000E+00  0.8000E+00
    -15.480  0.0000E+00  0.8000E+00
    -15.390  0.0000E+00  0.8000E+00
    -15.299  0.3432E-14  0.8000E+00
    -15.208  0.4779E-12  0.8000E+00
    -15.118  0.4387E-10  0.8000E+00
    -15.027  0.2690E-08  0.8000E+00
    -14.937  0.1102E-06  0.8000E+00
    -14.846  0.3022E-05  0.8000E+00
    -14.756  0.5546E-04  0.8000E+00
    -14.665  0.6821E-03  0.8001E+00
    -14.574  0.5626E-02  0.8006E+00
    -14.484  0.3115E-01  0.8034E+00
    -14.393  0.1158E+00  0.8139E+00
    -14.303  0.2896E+00  0.8401E+00
    -14.212  0.4870E+00  0.8842E+00
    -14.122  0.5508E+00  0.9341E+00
    -14.031  0.4191E+00  0.9721E+00
    -13.940  0.2145E+00  0.9915E+00
    -13.850  0.7383E-01  0.9982E+00
    -13.759  0.1708E-01  0.9997E+00
    -13.669  0.2653E-02  0.1000E+01
    -13.578  0.2765E-03  0.1000E+01
    -13.488  0.1932E-04  0.1000E+01
    -13.397  0.9045E-06  0.1000E+01
    -13.306  0.2834E-07  0.1000E+01
    -13.216  0.5938E-09  0.1000E+01
    -13.125  0.8312E-11  0.1000E+01
    -13.035  0.7771E-13  0.1000E+01
    -12.944  0.4903E-15  0.1000E+01
    -12.854  0.0000E+00  0.1000E+01
    -12.763  0.0000E+00  0.1000E+01
    -12.672  0.0000E+00  0.1000E+01
    -12.582  0.0000E+00  0.1000E+01
    -12.491  0.0000E+00  0.1000E+01
    -12.401  0.0000E+00  0.1000E+01
    -12.310  0.0000E+00  0.1000E+01
    -12.220  0.0000E+00  0.1000E+01
    -12.129  0.3677E-15  0.1000E+01
    -12.038  0.5773E-13  0.1000E+01
    -11.948  0.6937E-11  0.1000E+01
    -11.857  0.5554E-09  0.1000E+01
    -11.767  0.2970E-07  0.1000E+01
    -11.676  0.1062E-05  0.1000E+01
    -11.586  0.2541E-04  0.1000E+01
    -11.495  0.4072E-03  0.1000E+01
    -11.404  0.4374E-02  0.1000E+01
    -11.314  0.3152E-01  0.1003E+01
    -11.223  0.1525E+00  0.1017E+01
    -11.133  0.4956E+00  0.1062E+01
    -11.042  0.1083E+01  0.1160E+01
    -10.952  0.1592E+01  0.1304E+01
    -10.861  0.1575E+01  0.1447E+01
    -10.770  0.1048E+01  0.1542E+01
    -10.680  0.4687E+00  0.1584E+01
    -10.589  0.1410E+00  0.1597E+01
    -10.499  0.2850E-01  0.1600E+01
    -10.408  0.3868E-02  0.1600E+01
    -10.318  0.3521E-03  0.1600E+01
    -10.227  0.2149E-04  0.1600E+01
    -10.136  0.8780E-06  0.1600E+01
    -10.046  0.2400E-07  0.1600E+01
     -9.955  0.4387E-09  0.1600E+01
     -9.865  0.5357E-11  0.1600E+01
     -9.774  0.4413E-13  0.1600E+01
     -9.684  0.0000E+00  0.1600E+01
     -9.593  0.0000E+00  0.1600E+01
     -9.502  0.0000E+00  0.1600E+01
     -9.412  0.0000E+00  0.1600E+01
     -9.321  0.0000E+00  0.1600E+01
     -9.231  0.0000E+00  0.1600E+01
     -9.140  0.0000E+00  0.1600E+01
     -9.049  0.0000E+00  0.1600E+01
     -8.959  0.0000E+00  0.1600E+01
     -8.868  0.0000E+00  0.1600E+01
     -8.778  0.0000E+00  0.1600E+01
     -8.687  0.5884E-14  0.1600E+01
     -8.597  0.8313E-12  0.1600E+01
     -8.506  0.7723E-10  0.1600E+01
     -8.415  0.4792E-08  0.1600E+01
     -8.325  0.1987E-06  0.1600E+01
     -8.234  0.5513E-05  0.1600E+01
     -8.144  0.1024E-03  0.1600E+01
     -8.053  0.1274E-02  0.1600E+01
     -7.963  0.1063E-01  0.1601E+01
     -7.872  0.5957E-01  0.1606E+01
     -7.781  0.2242E+00  0.1627E+01
     -7.691  0.5670E+00  0.1678E+01
     -7.600  0.9646E+00  0.1766E+01
     -7.510  0.1104E+01  0.1865E+01
     -7.419  0.8526E+00  0.1943E+01
     -7.329  0.4617E+00  0.1985E+01
     -7.238  0.2669E+00  0.2009E+01
     -7.147  0.4369E+00  0.2048E+01
     -7.057  0.9572E+00  0.2135E+01
     -6.966  0.1519E+01  0.2273E+01
     -6.876  0.1631E+01  0.2420E+01
     -6.785  0.1178E+01  0.2527E+01
     -6.695  0.5722E+00  0.2579E+01
     -6.604  0.1871E+00  0.2596E+01
     -6.513  0.4308E-01  0.2600E+01
     -6.423  0.2296E-01  0.2602E+01
     -6.332  0.9421E-01  0.2610E+01
     -6.242  0.3480E+00  0.2642E+01
     -6.151  0.8696E+00  0.2720E+01
     -6.061  0.1461E+01  0.2853E+01
     -5.970  0.1652E+01  0.3002E+01
     -5.879  0.1257E+01  0.3116E+01
     -5.789  0.6429E+00  0.3175E+01
     -5.698  0.2212E+00  0.3195E+01
     -5.608  0.5113E-01  0.3199E+01
     -5.517  0.7939E-02  0.3200E+01
     -5.427  0.8271E-03  0.3200E+01
     -5.336  0.5777E-04  0.3200E+01
     -5.245  0.2703E-05  0.3200E+01
     -5.155  0.8465E-07  0.3200E+01
     -5.064  0.1773E-08  0.3200E+01
     -4.974  0.2481E-10  0.3200E+01
     -4.883  0.2317E-12  0.3200E+01
     -4.793  0.1471E-14  0.3200E+01
     -4.702  0.0000E+00  0.3200E+01
     -4.611  0.0000E+00  0.3200E+01
     -4.521  0.0000E+00  0.3200E+01
     -4.430  0.0000E+00  0.3200E+01
     -4.340  0.0000E+00  0.3200E+01
     -4.249  0.0000E+00  0.3200E+01
     -4.159  0.0000E+00  0.3200E+01
     -4.068  0.0000E+00  0.3200E+01
     -3.977  0.0000E+00  0.3200E+01
     -3.887  0.0000E+00  0.3200E+01
     -3.796  0.0000E+00  0.3200E+01
     -3.706  0.0000E+00  0.3200E+01
     -3.615  0.0000E+00  0.3200E+01
     -3.525  0.0000E+00  0.3200E+01
     -3.434  0.0000E+00  0.3200E+01
     -3.343  0.0000E+00  0.3200E+01
     -3.253  0.0000E+00  0.3200E+01
     -3.162  0.0000E+00  0.3200E+01
     -3.072  0.0000E+00  0.3200E+01
     -2.981  0.0000E+00  0.3200E+01
     -2.891  0.0000E+00  0.3200E+01
     -2.800  0.0000E+00  0.3200E+01
     -2.709  0.0000E+00  0.3200E+01
     -2.619  0.0000E+00  0.3200E+01
     -2.528  0.0000E+00  0.3200E+01
     -2.438  0.0000E+00  0.3200E+01
     -2.347  0.1226E-14  0.3200E+01
     -2.257  0.1738E-12  0.3200E+01
     -2.166  0.1739E-10  0.3200E+01
     -2.075  0.1162E-08  0.3200E+01
     -1.985  0.5186E-07  0.3200E+01
     -1.894  0.1548E-05  0.3200E+01
     -1.804  0.3093E-04  0.3200E+01
     -1.713  0.4141E-03  0.3200E+01
     -1.623  0.3718E-02  0.3200E+01
     -1.532  0.2240E-01  0.3202E+01
     -1.441  0.9063E-01  0.3211E+01
     -1.351  0.2465E+00  0.3233E+01
     -1.260  0.4508E+00  0.3274E+01
     -1.170  0.5546E+00  0.3324E+01
     -1.079  0.4591E+00  0.3366E+01
     -0.989  0.2556E+00  0.3389E+01
     -0.898  0.9570E-01  0.3397E+01
     -0.807  0.2408E-01  0.3400E+01
     -0.717  0.4071E-02  0.3400E+01
     -0.626  0.4619E-03  0.3400E+01
     -0.536  0.3667E-04  0.3400E+01
     -0.445  0.3696E-04  0.3400E+01
     -0.355  0.5389E-03  0.3400E+01
     -0.264  0.5535E-02  0.3401E+01
     -0.173  0.3816E-01  0.3404E+01
     -0.083  0.1767E+00  0.3420E+01
      0.008  0.5499E+00  0.3470E+01
      0.098  0.1151E+01  0.3574E+01
      0.189  0.1621E+01  0.3721E+01
      0.279  0.1535E+01  0.3860E+01
      0.370  0.9790E+00  0.3949E+01
      0.461  0.4199E+00  0.3987E+01
      0.551  0.1211E+00  0.3998E+01
      0.642  0.2347E-01  0.4000E+01
      0.732  0.3055E-02  0.4000E+01
      0.823  0.2667E-03  0.4000E+01
      0.913  0.1561E-04  0.4000E+01
      1.004  0.6122E-06  0.4000E+01
      1.095  0.1606E-07  0.4000E+01
      1.185  0.2818E-09  0.4000E+01
      1.276  0.3303E-11  0.4000E+01
      1.366  0.2599E-13  0.4000E+01
      1.457  0.0000E+00  0.4000E+01
      1.548  0.0000E+00  0.4000E+01
      1.638  0.0000E+00  0.4000E+01
      1.729  0.0000E+00  0.4000E+01
      1.819  0.0000E+00  0.4000E+01
      1.910  0.0000E+00  0.4000E+01
      2.000  0.0000E+00  0.4000E+01
      2.091  0.0000E+00  0.4000E+01
      2.182  0.0000E+00  0.4000E+01
