    5    5   10    1
  0.1024000E+03  0.8000000E-09  0.8000000E-09  0.8000000E-09  0.5000000E-15
  1.000000000000000E-004
  CAR 
 unknown system                          
   32    1   20
 
  0.0000000E+00  0.0000000E+00  0.0000000E+00  0.1000000E+01
   1      -22.990286
   2      -19.838179
   3      -19.838179
   4      -19.838179
   5      -14.183999
   6      -10.954072
   7      -10.954072
   8      -10.954072
   9       -7.569522
  10       -7.569522
  11       -6.950095
  12       -6.950095
  13       -6.950095
  14       -6.032567
  15       -6.032567
  16       -6.032567
  17       -1.212894
  18        0.174121
  19        0.174121
  20        0.181509
