       N       E                     dE             d eps       ncg     rms          rms(c)
DAV:   1     0.277035785112E+03    0.27704E+03   -0.94308E+03    40   0.101E+03
DAV:   2     0.368694103600E+02   -0.24017E+03   -0.23564E+03    60   0.210E+02
DAV:   3    -0.160718953692E+02   -0.52941E+02   -0.52778E+02    48   0.116E+02
DAV:   4    -0.175558424580E+02   -0.14839E+01   -0.14766E+01    48   0.248E+01
DAV:   5    -0.176093943927E+02   -0.53552E-01   -0.53513E-01    56   0.424E+00    0.447E+00
DAV:   6    -0.173650164481E+02    0.24438E+00   -0.23372E-01    48   0.290E+00    0.253E+00
DAV:   7    -0.172859347225E+02    0.79082E-01   -0.20924E-01    40   0.267E+00    0.439E-01
DAV:   8    -0.172865194846E+02   -0.58476E-03   -0.11997E-02    56   0.734E-01    0.178E-01
DAV:   9    -0.172876190199E+02   -0.10995E-02   -0.10725E-03    40   0.221E-01    0.568E-02
DAV:  10    -0.172886945878E+02   -0.10756E-02   -0.24706E-04    32   0.105E-01    0.164E-02
DAV:  11    -0.172893210297E+02   -0.62644E-03   -0.63899E-05    24   0.539E-02    0.147E-02
DAV:  12    -0.172900139547E+02   -0.69292E-03   -0.78429E-05    24   0.507E-02    0.455E-03
DAV:  13    -0.172901142713E+02   -0.10032E-03   -0.14717E-05    24   0.230E-02    0.268E-03
DAV:  14    -0.172901674937E+02   -0.53222E-04   -0.42667E-06    24   0.134E-02
   1 F= -.17290167E+02 E0= -.17290167E+02  d E =-.172902E+02
       N       E                     dE             d eps       ncg     rms          rms(c)
DAV:   1    -0.172907383041E+02   -0.62403E-03   -0.71274E-01    40   0.481E+00    0.144E-01
DAV:   2    -0.172933474456E+02   -0.26091E-02   -0.29942E-02    44   0.126E+00    0.116E-01
DAV:   3    -0.172932274177E+02    0.12003E-03   -0.66633E-04    56   0.190E-01    0.735E-02
DAV:   4    -0.172931837100E+02    0.43708E-04   -0.17994E-04    24   0.879E-02
   2 F= -.17293184E+02 E0= -.17293184E+02  d E =-.301622E-02
       N       E                     dE             d eps       ncg     rms          rms(c)
DAV:   1    -0.172933065043E+02   -0.79087E-04   -0.21092E-02    48   0.843E-01    0.211E-02
DAV:   2    -0.172933851595E+02   -0.78655E-04   -0.95808E-04    48   0.228E-01
   3 F= -.17293385E+02 E0= -.17293385E+02  d E =-.321767E-02
