<?xml version="1.0" encoding="ISO-8859-1"?>
<modeling>
 <generator>
  <i name="program" type="string">vasp </i>
  <i name="version" type="string">5.2.12  </i>
  <i name="subversion" type="string">11Nov11 complex                                                      parallel </i>
  <i name="platform" type="string">LinuxIFC </i>
  <i name="date" type="string">2012 10 31 </i>
  <i name="time" type="string">21:35:03 </i>
 </generator>
 <incar>
  <i type="string" name="PREC">normal</i>
  <i type="int" name="IBRION">     2</i>
  <i type="int" name="NSW">    10</i>
  <i name="ENCUT">    450.00000000</i>
  <i type="int" name="ISMEAR">     0</i>
 </incar>
 <kpoints>
  <generation param="Monkhorst-Pack">
   <v type="int" name="divisions">       1        1        1 </v>
   <v name="usershift">      0.00000000       0.00000000       0.00000000 </v>
   <v name="genvec1">      1.00000000       0.00000000       0.00000000 </v>
   <v name="genvec2">      0.00000000       1.00000000       0.00000000 </v>
   <v name="genvec3">      0.00000000       0.00000000       1.00000000 </v>
   <v name="shift">      0.00000000       0.00000000       0.00000000 </v>
  </generation>
  <varray name="kpointlist" >
   <v>       0.00000000       0.00000000       0.00000000 </v>
  </varray>
  <varray name="weights" >
   <v>       1.00000000 </v>
  </varray>
 </kpoints>
 <parameters>
  <separator name="general" >
   <i type="string" name="SYSTEM">unknown system</i>
   <i type="logical" name="LCOMPAT"> F  </i>
  </separator>
  <separator name="electronic" >
   <i type="string" name="PREC">normal</i>
   <i name="ENMAX">    450.00000000</i>
   <i name="ENAUG">    644.87300000</i>
   <i name="EDIFF">      0.00010000</i>
   <i type="int" name="IALGO">    38</i>
   <i type="int" name="IWAVPR">    11</i>
   <i type="int" name="NBANDS">    20</i>
   <i name="NELECT">     32.00000000</i>
   <i type="int" name="TURBO">     0</i>
   <i type="int" name="IRESTART">     0</i>
   <i type="int" name="NREBOOT">     0</i>
   <i type="int" name="NMIN">     0</i>
   <i name="EREF">      0.00000000</i>
   <separator name="electronic smearing" >
    <i type="int" name="ISMEAR">     0</i>
    <i name="SIGMA">      0.20000000</i>
    <i name="KSPACING">      0.50000000</i>
    <i type="logical" name="KGAMMA"> T  </i>
   </separator>
   <separator name="electronic projectors" >
    <i type="logical" name="LREAL"> F  </i>
    <v name="ROPT">      0.00000000      0.00000000</v>
    <i type="int" name="LMAXPAW">  -100</i>
    <i type="int" name="LMAXMIX">     2</i>
    <i type="logical" name="NLSPLINE"> F  </i>
   </separator>
   <separator name="electronic startup" >
    <i type="int" name="ISTART">     0</i>
    <i type="int" name="ICHARG">     2</i>
    <i type="int" name="INIWAV">     1</i>
   </separator>
   <separator name="electronic spin" >
    <i type="int" name="ISPIN">     1</i>
    <i type="logical" name="LNONCOLLINEAR"> F  </i>
    <v name="MAGMOM">      1.00000000      1.00000000      1.00000000      1.00000000      1.00000000</v>
    <i name="NUPDOWN">     -1.00000000</i>
    <i type="logical" name="LSORBIT"> F  </i>
    <v name="SAXIS">      0.00000000      0.00000000      1.00000000</v>
    <i type="logical" name="LSPIRAL"> F  </i>
    <v name="QSPIRAL">      0.00000000      0.00000000      0.00000000</v>
    <i type="logical" name="LZEROZ"> F  </i>
   </separator>
   <separator name="electronic exchange-correlation" >
    <i type="logical" name="LASPH"> F  </i>
    <i type="logical" name="LMETAGGA"> F  </i>
   </separator>
   <separator name="electronic convergence" >
    <i type="int" name="NELM">    60</i>
    <i type="int" name="NELMDL">    -5</i>
    <i type="int" name="NELMIN">     2</i>
    <i name="ENINI">    450.00000000</i>
    <separator name="electronic convergence detail" >
     <i type="logical" name="LDIAG"> T  </i>
     <i type="logical" name="LSUBROT"> T  </i>
     <i name="WEIMIN">      0.00100000</i>
     <i name="EBREAK">      0.00000125</i>
     <i name="DEPER">      0.30000000</i>
     <i type="int" name="NRMM">     4</i>
     <i name="TIME">      0.40000000</i>
    </separator>
   </separator>
   <separator name="electronic mixer" >
    <i name="AMIX">      0.40000000</i>
    <i name="BMIX">      1.00000000</i>
    <i name="AMIN">      0.10000000</i>
    <i name="AMIX_MAG">      1.60000000</i>
    <i name="BMIX_MAG">      1.00000000</i>
    <separator name="electronic mixer details" >
     <i type="int" name="IMIX">     4</i>
     <i type="int" name="MAXMIX">   -45</i>
     <i name="WC">    100.00000000</i>
     <i type="int" name="INIMIX">     1</i>
     <i type="int" name="MIXPRE">     1</i>
     <i type="int" name="MREMOVE">     5</i>
    </separator>
   </separator>
   <separator name="electronic dipolcorrection" >
    <i type="logical" name="LDIPOL"> F  </i>
    <i type="logical" name="LMONO"> F  </i>
    <i type="int" name="IDIPOL">     0</i>
    <i name="EPSILON">      1.00000000</i>
    <v name="DIPOL">   -100.00000000   -100.00000000   -100.00000000</v>
    <i name="EFIELD">      0.00000000</i>
   </separator>
  </separator>
  <separator name="grids" >
   <i type="int" name="NGX">    42</i>
   <i type="int" name="NGY">    42</i>
   <i type="int" name="NGZ">    42</i>
   <i type="int" name="NGXF">    84</i>
   <i type="int" name="NGYF">    84</i>
   <i type="int" name="NGZF">    84</i>
   <i type="logical" name="ADDGRID"> F  </i>
  </separator>
  <separator name="ionic" >
   <i type="int" name="NSW">    10</i>
   <i type="int" name="IBRION">     2</i>
   <i type="int" name="ISIF">     2</i>
   <i name="PSTRESS">      0.00000000</i>
   <i name="EDIFFG">      0.00100000</i>
   <i type="int" name="NFREE">     1</i>
   <i name="POTIM">      0.50000000</i>
   <i name="SMASS">     -3.00000000</i>
   <i name="SCALEE">      1.00000000</i>
  </separator>
  <separator name="ionic md" >
   <i name="TEBEG">      0.00010000</i>
   <i name="TEEND">      0.00010000</i>
   <i type="int" name="NBLOCK">     1</i>
   <i type="int" name="KBLOCK">    10</i>
   <i type="int" name="NPACO">   256</i>
   <i name="APACO">     16.00000000</i>
  </separator>
  <separator name="symmetry" >
   <i type="int" name="ISYM">     2</i>
   <i name="SYMPREC">      0.00001000</i>
  </separator>
  <separator name="dos" >
   <i type="logical" name="LORBIT"> F  </i>
   <v name="RWIGS">     -1.00000000     -1.00000000</v>
   <i type="int" name="NEDOS">   301</i>
   <i name="EMIN">     10.00000000</i>
   <i name="EMAX">    -10.00000000</i>
   <i name="EFERMI">      0.00000000</i>
  </separator>
  <separator name="writing" >
   <i type="int" name="NWRITE">     2</i>
   <i type="logical" name="LWAVE"> T  </i>
   <i type="logical" name="LCHARG"> T  </i>
   <i type="logical" name="LPARD"> F  </i>
   <i type="logical" name="LVTOT"> F  </i>
   <i type="logical" name="LVHAR"> F  </i>
   <i type="logical" name="LELF"> F  </i>
   <i type="logical" name="LOPTICS"> F  </i>
   <v name="STM">      0.00000000      0.00000000      0.00000000      0.00000000      0.00000000      0.00000000      0.00000000</v>
  </separator>
  <separator name="performance" >
   <i type="int" name="NPAR">     1</i>
   <i type="int" name="NSIM">     4</i>
   <i type="int" name="NBLK">    -1</i>
   <i type="logical" name="LPLANE"> T  </i>
   <i type="logical" name="LSCALAPACK"> F  </i>
   <i type="logical" name="LSCAAWARE"> F  </i>
   <i type="logical" name="LSCALU"> F  </i>
   <i type="logical" name="LASYNC"> F  </i>
   <i type="logical" name="LORBITALREAL"> F  </i>
  </separator>
  <separator name="miscellaneous" >
   <i type="int" name="IDIOT">     3</i>
   <i type="logical" name="LMUSIC"> F  </i>
   <v name="POMASS">     12.01100000     35.45300000</v>
   <v name="DARWINR">      0.00000000      0.00000000</v>
   <v name="DARWINV">      1.00000000      1.00000000</v>
   <i type="logical" name="LCORR"> T  </i>
  </separator>
  <i type="logical" name="GGA_COMPAT"> T  </i>
  <i type="logical" name="LBERRY"> F  </i>
  <i type="int" name="ICORELEVEL">     0</i>
  <i type="logical" name="LDAU"> F  </i>
  <i type="int" name="I_CONSTRAINED_M">     0</i>
  <separator name="electronic exchange-correlation" >
   <i type="string" name="GGA">--</i>
   <i type="int" name="VOSKOWN">     0</i>
   <i type="logical" name="LHFCALC"> F  </i>
   <i type="string" name="PRECFOCK"></i>
   <i type="logical" name="LHFONE"> F  </i>
   <i type="logical" name="LRHFCALC"> F  </i>
   <i type="logical" name="LTHOMAS"> F  </i>
   <i type="logical" name="LMODELHF"> F  </i>
   <i name="ENCUT4O">     -1.00000000</i>
   <i type="int" name="EXXOEP">     0</i>
   <i type="int" name="FOURORBIT">     0</i>
   <i name="AEXX">      0.00000000</i>
   <i name="HFALPHA">      0.00000000</i>
   <i name="ALDAX">      1.00000000</i>
   <i name="AGGAX">      1.00000000</i>
   <i name="ALDAC">      1.00000000</i>
   <i name="AGGAC">      1.00000000</i>
   <i type="int" name="NKREDX">     1</i>
   <i type="int" name="NKREDY">     1</i>
   <i type="int" name="NKREDZ">     1</i>
   <i type="logical" name="SHIFTRED"> F  </i>
   <i type="logical" name="ODDONLY"> F  </i>
   <i type="logical" name="EVENONLY"> F  </i>
   <i type="int" name="LMAXFOCK">     0</i>
   <i type="int" name="NMAXFOCKAE">     0</i>
   <i type="logical" name="LFOCKAEDFT"> F  </i>
   <i name="HFSCREEN">      0.00000000</i>
   <i name="HFSCREENC">      0.00000000</i>
  </separator>
  <separator name="vdW DFT" >
   <i type="logical" name="LUSE_VDW"> F  </i>
   <i name="Zab_VDW">     -0.84910000</i>
   <i name="PARAM1">      0.12340000</i>
   <i name="PARAM2">      1.00000000</i>
   <i name="PARAM3">      0.00000000</i>
  </separator>
  <separator name="model GW" >
   <i type="int" name="MODEL_GW">     0</i>
   <i name="MODEL_EPS0">     61.44000000</i>
   <i name="MODEL_ALPHA">      1.00000000</i>
  </separator>
  <separator name="linear response parameters" >
   <i type="logical" name="LEPSILON"> F  </i>
   <i type="logical" name="LRPA"> F  </i>
   <i type="logical" name="LNABLA"> F  </i>
   <i type="logical" name="LVEL"> F  </i>
   <i type="int" name="KINTER">     0</i>
   <i name="CSHIFT">      0.10000000</i>
   <i name="OMEGAMAX">     -1.00000000</i>
  </separator>
  <separator name="orbital magnetization" >
   <i type="logical" name="NUCIND"> F  </i>
   <v name="MAGPOS">      0.00000000      0.00000000      0.00000000</v>
   <i type="logical" name="LNICSALL"> T  </i>
   <i type="logical" name="ORBITALMAG"> F  </i>
   <i type="logical" name="LMAGBLOCH"> F  </i>
   <i type="logical" name="LCHIMAG"> F  </i>
   <i type="logical" name="LGAUGE"> T  </i>
   <i type="int" name="MAGATOM">     0</i>
   <v name="MAGDIPOL">      0.00000000      0.00000000      0.00000000</v>
   <v name="AVECCONST">      0.00000000      0.00000000      0.00000000</v>
  </separator>
  <separator name="response functions" >
   <i type="logical" name="LADDER"> F  </i>
   <i type="logical" name="LHARTREE"> T  </i>
   <i type="int" name="IBSE">     0</i>
   <i type="logical" name="LTCTE"> F  </i>
   <i type="logical" name="LTETE"> F  </i>
   <i type="logical" name="LFXCEPS"> F  </i>
   <i type="logical" name="L2ORDER"> F  </i>
   <i type="logical" name="LUSEW"> F  </i>
   <i name="ENCUTGW">     -2.00000000</i>
   <i name="ENCUTGWSOFT">     -2.00000000</i>
   <i name="ENCUTLF">     -1.00000000</i>
   <i type="int" name="LMAXMP2">    -1</i>
   <i name="SCISSOR">      0.00000000</i>
   <i type="int" name="NOMEGA">     0</i>
   <i type="int" name="NOMEGAR">     0</i>
   <i type="int" name="NBANDSGW">    -1</i>
   <i type="int" name="NBANDSO">    -1</i>
   <i type="int" name="NBANDSV">    -1</i>
   <i name="OPTEMAX">      0.00000000</i>
   <i type="int" name="NELM">     1</i>
   <i type="int" name="DIM">     3</i>
   <i type="int" name="ANTIRES">     0</i>
   <i name="OMEGAMAX">    -30.00000000</i>
   <i name="OMEGATL">   -200.00000000</i>
   <i type="int" name="OMEGAGRID">     0</i>
   <i name="CSHIFT">     -0.10000000</i>
   <i type="logical" name="SELFENERGY"> F  </i>
   <i type="logical" name="LSPECTRAL"> F  </i>
   <i type="logical" name="ODDONLYGW"> F  </i>
   <i type="logical" name="EVENONLYGW"> F  </i>
   <i type="int" name="NKREDLFX">     1</i>
   <i type="int" name="NKREDLFY">     1</i>
   <i type="int" name="NKREDLFZ">     1</i>
   <i type="int" name="MAXMEM">  1800</i>
   <i type="int" name="TELESCOPE">     0</i>
  </separator>
 </parameters>
 <atominfo>
  <atoms>       5 </atoms>
  <types>       2 </types>
  <array name="atoms" >
   <dimension dim="1">ion</dimension>
   <field type="string">element</field>
   <field type="int">atomtype</field>
   <set>
    <rc><c>C </c><c>   1</c></rc>
    <rc><c>Cl</c><c>   2</c></rc>
    <rc><c>Cl</c><c>   2</c></rc>
    <rc><c>Cl</c><c>   2</c></rc>
    <rc><c>Cl</c><c>   2</c></rc>
   </set>
  </array>
  <array name="atomtypes" >
   <dimension dim="1">type</dimension>
   <field type="int">atomspertype</field>
   <field type="string">element</field>
   <field>mass</field>
   <field>valence</field>
   <field type="string">pseudopotential</field>
   <set>
    <rc><c>   1</c><c>C </c><c>     12.01100000</c><c>      4.00000000</c><c> PAW_PBE C 08Apr2002                    </c></rc>
    <rc><c>   4</c><c>Cl</c><c>     35.45300000</c><c>      7.00000000</c><c>  PAW_PBE Cl 17Jan2003                  </c></rc>
   </set>
  </array>
 </atominfo>
 <structure name="initialpos" >
  <crystal>
   <varray name="basis" >
    <v>       8.00000000       0.00000000       0.00000000 </v>
    <v>       0.00000000       8.00000000       0.00000000 </v>
    <v>       0.00000000       0.00000000       8.00000000 </v>
   </varray>
   <i name="volume">    512.00000000 </i>
   <varray name="rec_basis" >
    <v>       0.12500000       0.00000000       0.00000000 </v>
    <v>       0.00000000       0.12500000       0.00000000 </v>
    <v>       0.00000000       0.00000000       0.12500000 </v>
   </varray>
  </crystal>
  <varray name="positions" >
   <v>       0.00000000       0.00000000       0.00000000 </v>
   <v>       0.12766750       0.12766750       0.12766750 </v>
   <v>       0.87233250       0.87233250       0.12766750 </v>
   <v>       0.87233250       0.12766750       0.87233250 </v>
   <v>       0.12766750       0.87233250       0.87233250 </v>
  </varray>
 </structure>
 <calculation>
  <scstep>
   <time name="dav">    1.08    1.08</time>
   <time name="total">    2.26    2.26</time>
   <energy>
    <i name="alphaZ">      8.81598031 </i>
    <i name="ewald">    -81.24181609 </i>
    <i name="hartreedc">  -1444.11011375 </i>
    <i name="XCdc">     93.80981299 </i>
    <i name="pawpsdc">    831.83787413 </i>
    <i name="pawaedc">   -833.44360687 </i>
    <i name="eentropy">     -0.10192563 </i>
    <i name="bandstr">    -84.55552109 </i>
    <i name="atom">   1786.02510112 </i>
    <i name="e_fr_energy">    277.03578511 </i>
    <i name="e_wo_entrp">    277.13771075 </i>
    <i name="e_0_energy">    277.08674793 </i>
   </energy>
  </scstep>
  <scstep>
   <time name="dav">    1.54    1.54</time>
   <time name="total">    1.54    1.62</time>
   <energy>
    <i name="e_fr_energy">     36.86941036 </i>
    <i name="e_wo_entrp">     36.86941036 </i>
    <i name="e_0_energy">     36.86941036 </i>
   </energy>
  </scstep>
  <scstep>
   <time name="dav">    1.29    1.29</time>
   <time name="total">    1.29    1.30</time>
   <energy>
    <i name="e_fr_energy">    -16.07189537 </i>
    <i name="e_wo_entrp">    -16.07189537 </i>
    <i name="e_0_energy">    -16.07189537 </i>
   </energy>
  </scstep>
  <scstep>
   <time name="dav">    1.29    1.29</time>
   <time name="total">    1.29    1.31</time>
   <energy>
    <i name="e_fr_energy">    -17.55584246 </i>
    <i name="e_wo_entrp">    -17.55584246 </i>
    <i name="e_0_energy">    -17.55584246 </i>
   </energy>
  </scstep>
  <scstep>
   <time name="dav">    1.44    1.44</time>
   <time name="total">    1.70    1.77</time>
   <energy>
    <i name="e_fr_energy">    -17.60939439 </i>
    <i name="e_wo_entrp">    -17.60939439 </i>
    <i name="e_0_energy">    -17.60939439 </i>
   </energy>
  </scstep>
  <scstep>
   <time name="dav">    1.23    1.23</time>
   <time name="total">    2.70    2.71</time>
   <energy>
    <i name="e_fr_energy">    -17.36501645 </i>
    <i name="e_wo_entrp">    -17.36501645 </i>
    <i name="e_0_energy">    -17.36501645 </i>
   </energy>
  </scstep>
  <scstep>
   <time name="dav">    1.20    1.20</time>
   <time name="total">    2.63    2.64</time>
   <energy>
    <i name="e_fr_energy">    -17.28593472 </i>
    <i name="e_wo_entrp">    -17.28593472 </i>
    <i name="e_0_energy">    -17.28593472 </i>
   </energy>
  </scstep>
  <scstep>
   <time name="dav">    1.51    1.51</time>
   <time name="total">    2.89    2.95</time>
   <energy>
    <i name="e_fr_energy">    -17.28651948 </i>
    <i name="e_wo_entrp">    -17.28651948 </i>
    <i name="e_0_energy">    -17.28651948 </i>
   </energy>
  </scstep>
  <scstep>
   <time name="dav">    1.26    1.26</time>
   <time name="total">    2.68    2.79</time>
   <energy>
    <i name="e_fr_energy">    -17.28761902 </i>
    <i name="e_wo_entrp">    -17.28761902 </i>
    <i name="e_0_energy">    -17.28761902 </i>
   </energy>
  </scstep>
  <scstep>
   <time name="dav">    1.02    1.03</time>
   <time name="total">    2.43    2.52</time>
   <energy>
    <i name="e_fr_energy">    -17.28869459 </i>
    <i name="e_wo_entrp">    -17.28869459 </i>
    <i name="e_0_energy">    -17.28869459 </i>
   </energy>
  </scstep>
  <scstep>
   <time name="dav">    0.87    0.87</time>
   <time name="total">    2.28    2.30</time>
   <energy>
    <i name="e_fr_energy">    -17.28932103 </i>
    <i name="e_wo_entrp">    -17.28932103 </i>
    <i name="e_0_energy">    -17.28932103 </i>
   </energy>
  </scstep>
  <scstep>
   <time name="dav">    0.88    0.88</time>
   <time name="total">    2.29    2.36</time>
   <energy>
    <i name="e_fr_energy">    -17.29001395 </i>
    <i name="e_wo_entrp">    -17.29001395 </i>
    <i name="e_0_energy">    -17.29001395 </i>
   </energy>
  </scstep>
  <scstep>
   <time name="dav">    0.83    0.83</time>
   <time name="total">    2.19    2.21</time>
   <energy>
    <i name="e_fr_energy">    -17.29011427 </i>
    <i name="e_wo_entrp">    -17.29011427 </i>
    <i name="e_0_energy">    -17.29011427 </i>
   </energy>
  </scstep>
  <scstep>
   <time name="dav">    0.84    0.85</time>
   <time name="total">    1.81    1.85</time>
   <energy>
    <i name="alphaZ">      8.81598031 </i>
    <i name="ewald">    -81.24181609 </i>
    <i name="hartreedc">  -1455.69004892 </i>
    <i name="XCdc">     94.75419810 </i>
    <i name="pawpsdc">    905.45821251 </i>
    <i name="pawaedc">   -907.61260191 </i>
    <i name="eentropy">      0.00000000 </i>
    <i name="bandstr">   -367.79919261 </i>
    <i name="atom">   1786.02510112 </i>
    <i name="e_fr_energy">    -17.29016749 </i>
    <i name="e_wo_entrp">    -17.29016749 </i>
    <i name="e_0_energy">    -17.29016749 </i>
   </energy>
  </scstep>
  <parameters_embedded>
   <separator name="dft+d2" >
    <i type="logical" name="LVDW"> F  </i>
   </separator>
  </parameters_embedded>
  <structure>
   <crystal>
    <varray name="basis" >
     <v>       8.00000000       0.00000000       0.00000000 </v>
     <v>       0.00000000       8.00000000       0.00000000 </v>
     <v>       0.00000000       0.00000000       8.00000000 </v>
    </varray>
    <i name="volume">    512.00000000 </i>
    <varray name="rec_basis" >
     <v>       0.12500000       0.00000000       0.00000000 </v>
     <v>       0.00000000       0.12500000       0.00000000 </v>
     <v>       0.00000000       0.00000000       0.12500000 </v>
    </varray>
   </crystal>
   <varray name="positions" >
    <v>       0.00000000       0.00000000       0.00000000 </v>
    <v>       0.12766750       0.12766750       0.12766750 </v>
    <v>       0.87233250       0.87233250       0.12766750 </v>
    <v>       0.87233250       0.12766750       0.87233250 </v>
    <v>       0.12766750       0.87233250       0.87233250 </v>
   </varray>
  </structure>
  <varray name="forces" >
   <v>       0.00000000       0.00000000       0.00000000 </v>
   <v>       0.11814199       0.11814199       0.11814199 </v>
   <v>      -0.11814199      -0.11814199       0.11814199 </v>
   <v>      -0.11814199       0.11814199      -0.11814199 </v>
   <v>       0.11814199      -0.11814199      -0.11814199 </v>
  </varray>
  <varray name="stress" >
   <v>       1.14209048       0.00000000       0.00000000 </v>
   <v>       0.00000000       1.14209048       0.00000000 </v>
   <v>       0.00000000       0.00000000       1.14209048 </v>
  </varray>
  <energy>
   <i name="e_fr_energy">    -17.29016749 </i>
   <i name="e_wo_entrp">    -17.29016749 </i>
   <i name="e_0_energy">      0.00000000 </i>
  </energy>
  <time name="totalsc">   35.14   36.16</time>
 </calculation>
 <calculation>
  <scstep>
   <time name="dav">    1.13    1.14</time>
   <time name="total">    2.50    2.50</time>
   <energy>
    <i name="alphaZ">      8.81598031 </i>
    <i name="ewald">    -92.78883242 </i>
    <i name="hartreedc">  -1445.17087546 </i>
    <i name="XCdc">     94.62784899 </i>
    <i name="pawpsdc">    905.46328363 </i>
    <i name="pawaedc">   -907.61771726 </i>
    <i name="eentropy">      0.00000000 </i>
    <i name="bandstr">   -366.64552721 </i>
    <i name="atom">   1786.02510112 </i>
    <i name="e_fr_energy">    -17.29073830 </i>
    <i name="e_wo_entrp">    -17.29073830 </i>
    <i name="e_0_energy">    -17.29073830 </i>
   </energy>
  </scstep>
  <scstep>
   <time name="dav">    1.21    1.21</time>
   <time name="total">    2.70    2.72</time>
   <energy>
    <i name="e_fr_energy">    -17.29334745 </i>
    <i name="e_wo_entrp">    -17.29334745 </i>
    <i name="e_0_energy">    -17.29334745 </i>
   </energy>
  </scstep>
  <scstep>
   <time name="dav">    1.37    1.38</time>
   <time name="total">    2.84    2.87</time>
   <energy>
    <i name="e_fr_energy">    -17.29322742 </i>
    <i name="e_wo_entrp">    -17.29322742 </i>
    <i name="e_0_energy">    -17.29322742 </i>
   </energy>
  </scstep>
  <scstep>
   <time name="dav">    0.77    0.77</time>
   <time name="total">    2.01    2.10</time>
   <energy>
    <i name="alphaZ">      8.81598031 </i>
    <i name="ewald">    -92.78883242 </i>
    <i name="hartreedc">  -1444.71345878 </i>
    <i name="XCdc">     94.61796225 </i>
    <i name="pawpsdc">    903.14477059 </i>
    <i name="pawaedc">   -905.27905899 </i>
    <i name="eentropy">      0.00000000 </i>
    <i name="bandstr">   -367.11564780 </i>
    <i name="atom">   1786.02510112 </i>
    <i name="e_fr_energy">    -17.29318371 </i>
    <i name="e_wo_entrp">    -17.29318371 </i>
    <i name="e_0_energy">    -17.29318371 </i>
   </energy>
  </scstep>
  <structure>
   <crystal>
    <varray name="basis" >
     <v>       8.00000000       0.00000000       0.00000000 </v>
     <v>       0.00000000       8.00000000       0.00000000 </v>
     <v>       0.00000000       0.00000000       8.00000000 </v>
    </varray>
    <i name="volume">    512.00000000 </i>
    <varray name="rec_basis" >
     <v>       0.12500000       0.00000000       0.00000000 </v>
     <v>       0.00000000       0.12500000       0.00000000 </v>
     <v>       0.00000000       0.00000000       0.12500000 </v>
    </varray>
   </crystal>
   <varray name="positions" >
    <v>       0.00000000       0.00000000       0.00000000 </v>
    <v>       0.12837994       0.12837994       0.12837994 </v>
    <v>       0.87162006       0.87162006       0.12837994 </v>
    <v>       0.87162006       0.12837994       0.87162006 </v>
    <v>       0.12837994       0.87162006       0.87162006 </v>
   </varray>
  </structure>
  <varray name="forces" >
   <v>       0.00000000       0.00000000       0.00000000 </v>
   <v>      -0.02403204      -0.02403204      -0.02403204 </v>
   <v>       0.02403204       0.02403204      -0.02403204 </v>
   <v>       0.02403204      -0.02403204       0.02403204 </v>
   <v>      -0.02403204       0.02403204       0.02403204 </v>
  </varray>
  <varray name="stress" >
   <v>      -0.79658201       0.00000000       0.00000000 </v>
   <v>       0.00000000      -0.79658201       0.00000000 </v>
   <v>       0.00000000       0.00000000      -0.79658201 </v>
  </varray>
  <energy>
   <i name="e_fr_energy">    -17.29318371 </i>
   <i name="e_wo_entrp">    -17.29318371 </i>
   <i name="e_0_energy">      0.00000000 </i>
  </energy>
  <time name="totalsc">   14.41   14.75</time>
 </calculation>
 <calculation>
  <scstep>
   <time name="dav">    1.26    1.26</time>
   <time name="total">    2.56    2.56</time>
   <energy>
    <i name="alphaZ">      8.81598031 </i>
    <i name="ewald">    -90.84777807 </i>
    <i name="hartreedc">  -1446.44703748 </i>
    <i name="XCdc">     94.63839891 </i>
    <i name="pawpsdc">    902.73092565 </i>
    <i name="pawaedc">   -904.86095126 </i>
    <i name="eentropy">      0.00000000 </i>
    <i name="bandstr">   -367.34794569 </i>
    <i name="atom">   1786.02510112 </i>
    <i name="e_fr_energy">    -17.29330650 </i>
    <i name="e_wo_entrp">    -17.29330650 </i>
    <i name="e_0_energy">    -17.29330650 </i>
   </energy>
  </scstep>
  <scstep>
   <time name="dav">    1.28    1.28</time>
   <time name="total">    2.34    2.35</time>
   <energy>
    <i name="alphaZ">      8.81598031 </i>
    <i name="ewald">    -90.84777807 </i>
    <i name="hartreedc">  -1446.51906340 </i>
    <i name="XCdc">     94.63947272 </i>
    <i name="pawpsdc">    902.89520875 </i>
    <i name="pawaedc">   -905.02616944 </i>
    <i name="eentropy">      0.00000000 </i>
    <i name="bandstr">   -367.27613716 </i>
    <i name="atom">   1786.02510112 </i>
    <i name="e_fr_energy">    -17.29338516 </i>
    <i name="e_wo_entrp">    -17.29338516 </i>
    <i name="e_0_energy">    -17.29338516 </i>
   </energy>
  </scstep>
  <structure>
   <crystal>
    <varray name="basis" >
     <v>       8.00000000       0.00000000       0.00000000 </v>
     <v>       0.00000000       8.00000000       0.00000000 </v>
     <v>       0.00000000       0.00000000       8.00000000 </v>
    </varray>
    <i name="volume">    512.00000000 </i>
    <varray name="rec_basis" >
     <v>       0.12500000       0.00000000       0.00000000 </v>
     <v>       0.00000000       0.12500000       0.00000000 </v>
     <v>       0.00000000       0.00000000       0.12500000 </v>
    </varray>
   </crystal>
   <varray name="positions" >
    <v>       0.00000000       0.00000000       0.00000000 </v>
    <v>       0.12825951       0.12825951       0.12825951 </v>
    <v>       0.87174049       0.87174049       0.12825951 </v>
    <v>       0.87174049       0.12825951       0.87174049 </v>
    <v>       0.12825951       0.87174049       0.87174049 </v>
   </varray>
  </structure>
  <varray name="forces" >
   <v>       0.00000000       0.00000000       0.00000000 </v>
   <v>      -0.00265669      -0.00265669      -0.00265669 </v>
   <v>       0.00265669       0.00265669      -0.00265669 </v>
   <v>       0.00265669      -0.00265669       0.00265669 </v>
   <v>      -0.00265669       0.00265669       0.00265669 </v>
  </varray>
  <varray name="stress" >
   <v>      -0.37170791       0.00000000       0.00000000 </v>
   <v>       0.00000000      -0.37170791       0.00000000 </v>
   <v>       0.00000000       0.00000000      -0.37170791 </v>
  </varray>
  <energy>
   <i name="e_fr_energy">    -17.29338516 </i>
   <i name="e_wo_entrp">    -17.29338516 </i>
   <i name="e_0_energy">      0.00000000 </i>
  </energy>
  <time name="totalsc">    8.49    8.67</time>
  <eigenvalues>
   <array>
    <dimension dim="1">band</dimension>
    <dimension dim="2">kpoint</dimension>
    <dimension dim="3">spin</dimension>
    <field>eigene</field>
    <field>occ</field>
    <set>
     <set comment="spin 1">
      <set comment="kpoint 1">
       <r>  -22.9903    1.0000 </r>
       <r>  -19.8382    1.0000 </r>
       <r>  -19.8382    1.0000 </r>
       <r>  -19.8382    1.0000 </r>
       <r>  -14.1840    1.0000 </r>
       <r>  -10.9541    1.0000 </r>
       <r>  -10.9541    1.0000 </r>
       <r>  -10.9541    1.0000 </r>
       <r>   -7.5695    1.0000 </r>
       <r>   -7.5695    1.0000 </r>
       <r>   -6.9501    1.0000 </r>
       <r>   -6.9501    1.0000 </r>
       <r>   -6.9501    1.0000 </r>
       <r>   -6.0326    1.0000 </r>
       <r>   -6.0326    1.0000 </r>
       <r>   -6.0326    1.0000 </r>
       <r>   -1.2129    0.0000 </r>
       <r>    0.1741    0.0000 </r>
       <r>    0.1741    0.0000 </r>
       <r>    0.1815    0.0000 </r>
      </set>
     </set>
    </set>
   </array>
  </eigenvalues>
  <separator name="orbital magnetization" >
   <v name="MAGDIPOLOUT">      0.00000000      0.00000000      0.00000000</v>
  </separator>
  <dos>
   <i name="efermi">     -5.06394951 </i>
   <total>
    <array>
     <dimension dim="1">gridpoints</dimension>
     <dimension dim="2">spin</dimension>
     <field>energy</field>
     <field>total</field>
     <field>integrated</field>
     <set>
      <set comment="spin 1">
       <r>   -24.9903     0.0000     0.0000 </r>
       <r>   -24.8997     0.0000     0.0000 </r>
       <r>   -24.8091     0.0000     0.0000 </r>
       <r>   -24.7186     0.0000     0.0000 </r>
       <r>   -24.6280     0.0000     0.0000 </r>
       <r>   -24.5374     0.0000     0.0000 </r>
       <r>   -24.4469     0.0000     0.0000 </r>
       <r>   -24.3563     0.0000     0.0000 </r>
       <r>   -24.2657     0.0000     0.0000 </r>
       <r>   -24.1751     0.0000     0.0000 </r>
       <r>   -24.0846     0.0000     0.0000 </r>
       <r>   -23.9940     0.0000     0.0000 </r>
       <r>   -23.9034     0.0000     0.0000 </r>
       <r>   -23.8128     0.0000     0.0000 </r>
       <r>   -23.7223     0.0000     0.0000 </r>
       <r>   -23.6317     0.0001     0.0000 </r>
       <r>   -23.5411     0.0010     0.0001 </r>
       <r>   -23.4506     0.0115     0.0011 </r>
       <r>   -23.3600     0.0862     0.0089 </r>
       <r>   -23.2694     0.4358     0.0484 </r>
       <r>   -23.1788     1.4799     0.1825 </r>
       <r>   -23.0883     3.3784     0.4884 </r>
       <r>   -22.9977     5.1871     0.9583 </r>
       <r>   -22.9071     5.3579     1.4435 </r>
       <r>   -22.8165     3.7232     1.7808 </r>
       <r>   -22.7260     1.7402     1.9384 </r>
       <r>   -22.6354     0.5469     1.9879 </r>
       <r>   -22.5448     0.1155     1.9984 </r>
       <r>   -22.4543     0.0164     1.9998 </r>
       <r>   -22.3637     0.0016     2.0000 </r>
       <r>   -22.2731     0.0001     2.0000 </r>
       <r>   -22.1825     0.0000     2.0000 </r>
       <r>   -22.0920     0.0000     2.0000 </r>
       <r>   -22.0014     0.0000     2.0000 </r>
       <r>   -21.9108     0.0000     2.0000 </r>
       <r>   -21.8202     0.0000     2.0000 </r>
       <r>   -21.7297     0.0000     2.0000 </r>
       <r>   -21.6391     0.0000     2.0000 </r>
       <r>   -21.5485     0.0000     2.0000 </r>
       <r>   -21.4580     0.0000     2.0000 </r>
       <r>   -21.3674     0.0000     2.0000 </r>
       <r>   -21.2768     0.0000     2.0000 </r>
       <r>   -21.1862     0.0000     2.0000 </r>
       <r>   -21.0957     0.0000     2.0000 </r>
       <r>   -21.0051     0.0000     2.0000 </r>
       <r>   -20.9145     0.0000     2.0000 </r>
       <r>   -20.8239     0.0000     2.0000 </r>
       <r>   -20.7334     0.0000     2.0000 </r>
       <r>   -20.6428     0.0000     2.0000 </r>
       <r>   -20.5522     0.0000     2.0000 </r>
       <r>   -20.4617     0.0003     2.0000 </r>
       <r>   -20.3711     0.0051     2.0005 </r>
       <r>   -20.2805     0.0529     2.0053 </r>
       <r>   -20.1899     0.3680     2.0386 </r>
       <r>   -20.0994     1.7190     2.1943 </r>
       <r>   -20.0088     5.3954     2.6830 </r>
       <r>   -19.9182    11.3862     3.7143 </r>
       <r>   -19.8276    16.1623     5.1781 </r>
       <r>   -19.7371    15.4342     6.5760 </r>
       <r>   -19.6465     9.9154     7.4741 </r>
       <r>   -19.5559     4.2842     7.8621 </r>
       <r>   -19.4654     1.2445     7.9749 </r>
       <r>   -19.3748     0.2429     7.9968 </r>
       <r>   -19.2842     0.0318     7.9997 </r>
       <r>   -19.1936     0.0028     8.0000 </r>
       <r>   -19.1031     0.0002     8.0000 </r>
       <r>   -19.0125     0.0000     8.0000 </r>
       <r>   -18.9219     0.0000     8.0000 </r>
       <r>   -18.8313     0.0000     8.0000 </r>
       <r>   -18.7408     0.0000     8.0000 </r>
       <r>   -18.6502     0.0000     8.0000 </r>
       <r>   -18.5596     0.0000     8.0000 </r>
       <r>   -18.4691     0.0000     8.0000 </r>
       <r>   -18.3785     0.0000     8.0000 </r>
       <r>   -18.2879     0.0000     8.0000 </r>
       <r>   -18.1973     0.0000     8.0000 </r>
       <r>   -18.1068     0.0000     8.0000 </r>
       <r>   -18.0162     0.0000     8.0000 </r>
       <r>   -17.9256     0.0000     8.0000 </r>
       <r>   -17.8350     0.0000     8.0000 </r>
       <r>   -17.7445     0.0000     8.0000 </r>
       <r>   -17.6539     0.0000     8.0000 </r>
       <r>   -17.5633     0.0000     8.0000 </r>
       <r>   -17.4728     0.0000     8.0000 </r>
       <r>   -17.3822     0.0000     8.0000 </r>
       <r>   -17.2916     0.0000     8.0000 </r>
       <r>   -17.2010     0.0000     8.0000 </r>
       <r>   -17.1105     0.0000     8.0000 </r>
       <r>   -17.0199     0.0000     8.0000 </r>
       <r>   -16.9293     0.0000     8.0000 </r>
       <r>   -16.8387     0.0000     8.0000 </r>
       <r>   -16.7482     0.0000     8.0000 </r>
       <r>   -16.6576     0.0000     8.0000 </r>
       <r>   -16.5670     0.0000     8.0000 </r>
       <r>   -16.4765     0.0000     8.0000 </r>
       <r>   -16.3859     0.0000     8.0000 </r>
       <r>   -16.2953     0.0000     8.0000 </r>
       <r>   -16.2047     0.0000     8.0000 </r>
       <r>   -16.1142     0.0000     8.0000 </r>
       <r>   -16.0236     0.0000     8.0000 </r>
       <r>   -15.9330     0.0000     8.0000 </r>
       <r>   -15.8424     0.0000     8.0000 </r>
       <r>   -15.7519     0.0000     8.0000 </r>
       <r>   -15.6613     0.0000     8.0000 </r>
       <r>   -15.5707     0.0000     8.0000 </r>
       <r>   -15.4802     0.0000     8.0000 </r>
       <r>   -15.3896     0.0000     8.0000 </r>
       <r>   -15.2990     0.0000     8.0000 </r>
       <r>   -15.2084     0.0000     8.0000 </r>
       <r>   -15.1179     0.0000     8.0000 </r>
       <r>   -15.0273     0.0000     8.0000 </r>
       <r>   -14.9367     0.0000     8.0000 </r>
       <r>   -14.8461     0.0000     8.0000 </r>
       <r>   -14.7556     0.0006     8.0001 </r>
       <r>   -14.6650     0.0068     8.0007 </r>
       <r>   -14.5744     0.0563     8.0058 </r>
       <r>   -14.4839     0.3115     8.0340 </r>
       <r>   -14.3933     1.1585     8.1389 </r>
       <r>   -14.3027     2.8962     8.4012 </r>
       <r>   -14.2121     4.8695     8.8423 </r>
       <r>   -14.1216     5.5077     9.3411 </r>
       <r>   -14.0310     4.1910     9.7207 </r>
       <r>   -13.9404     2.1451     9.9150 </r>
       <r>   -13.8499     0.7383     9.9819 </r>
       <r>   -13.7593     0.1708     9.9973 </r>
       <r>   -13.6687     0.0265     9.9997 </r>
       <r>   -13.5781     0.0028    10.0000 </r>
       <r>   -13.4876     0.0002    10.0000 </r>
       <r>   -13.3970     0.0000    10.0000 </r>
       <r>   -13.3064     0.0000    10.0000 </r>
       <r>   -13.2158     0.0000    10.0000 </r>
       <r>   -13.1253     0.0000    10.0000 </r>
       <r>   -13.0347     0.0000    10.0000 </r>
       <r>   -12.9441     0.0000    10.0000 </r>
       <r>   -12.8536     0.0000    10.0000 </r>
       <r>   -12.7630     0.0000    10.0000 </r>
       <r>   -12.6724     0.0000    10.0000 </r>
       <r>   -12.5818     0.0000    10.0000 </r>
       <r>   -12.4913     0.0000    10.0000 </r>
       <r>   -12.4007     0.0000    10.0000 </r>
       <r>   -12.3101     0.0000    10.0000 </r>
       <r>   -12.2195     0.0000    10.0000 </r>
       <r>   -12.1290     0.0000    10.0000 </r>
       <r>   -12.0384     0.0000    10.0000 </r>
       <r>   -11.9478     0.0000    10.0000 </r>
       <r>   -11.8573     0.0000    10.0000 </r>
       <r>   -11.7667     0.0000    10.0000 </r>
       <r>   -11.6761     0.0000    10.0000 </r>
       <r>   -11.5855     0.0003    10.0000 </r>
       <r>   -11.4950     0.0041    10.0004 </r>
       <r>   -11.4044     0.0437    10.0044 </r>
       <r>   -11.3138     0.3152    10.0329 </r>
       <r>   -11.2232     1.5247    10.1710 </r>
       <r>   -11.1327     4.9562    10.6199 </r>
       <r>   -11.0421    10.8318    11.6010 </r>
       <r>   -10.9515    15.9225    13.0431 </r>
       <r>   -10.8610    15.7460    14.4693 </r>
       <r>   -10.7704    10.4756    15.4181 </r>
       <r>   -10.6798     4.6875    15.8426 </r>
       <r>   -10.5892     1.4101    15.9703 </r>
       <r>   -10.4987     0.2850    15.9962 </r>
       <r>   -10.4081     0.0387    15.9997 </r>
       <r>   -10.3175     0.0035    16.0000 </r>
       <r>   -10.2269     0.0002    16.0000 </r>
       <r>   -10.1364     0.0000    16.0000 </r>
       <r>   -10.0458     0.0000    16.0000 </r>
       <r>    -9.9552     0.0000    16.0000 </r>
       <r>    -9.8647     0.0000    16.0000 </r>
       <r>    -9.7741     0.0000    16.0000 </r>
       <r>    -9.6835     0.0000    16.0000 </r>
       <r>    -9.5929     0.0000    16.0000 </r>
       <r>    -9.5024     0.0000    16.0000 </r>
       <r>    -9.4118     0.0000    16.0000 </r>
       <r>    -9.3212     0.0000    16.0000 </r>
       <r>    -9.2306     0.0000    16.0000 </r>
       <r>    -9.1401     0.0000    16.0000 </r>
       <r>    -9.0495     0.0000    16.0000 </r>
       <r>    -8.9589     0.0000    16.0000 </r>
       <r>    -8.8684     0.0000    16.0000 </r>
       <r>    -8.7778     0.0000    16.0000 </r>
       <r>    -8.6872     0.0000    16.0000 </r>
       <r>    -8.5966     0.0000    16.0000 </r>
       <r>    -8.5061     0.0000    16.0000 </r>
       <r>    -8.4155     0.0000    16.0000 </r>
       <r>    -8.3249     0.0000    16.0000 </r>
       <r>    -8.2343     0.0001    16.0000 </r>
       <r>    -8.1438     0.0010    16.0001 </r>
       <r>    -8.0532     0.0127    16.0013 </r>
       <r>    -7.9626     0.1063    16.0109 </r>
       <r>    -7.8721     0.5957    16.0648 </r>
       <r>    -7.7815     2.2416    16.2679 </r>
       <r>    -7.6909     5.6700    16.7814 </r>
       <r>    -7.6003     9.6456    17.6550 </r>
       <r>    -7.5098    11.0403    18.6550 </r>
       <r>    -7.4192     8.5255    19.4272 </r>
       <r>    -7.3286     4.6171    19.8453 </r>
       <r>    -7.2380     2.6686    20.0870 </r>
       <r>    -7.1475     4.3689    20.4827 </r>
       <r>    -7.0569     9.5724    21.3497 </r>
       <r>    -6.9663    15.1928    22.7258 </r>
       <r>    -6.8758    16.3054    24.2026 </r>
       <r>    -6.7852    11.7769    25.2693 </r>
       <r>    -6.6946     5.7217    25.7875 </r>
       <r>    -6.6040     1.8707    25.9569 </r>
       <r>    -6.5135     0.4308    25.9960 </r>
       <r>    -6.4229     0.2296    26.0168 </r>
       <r>    -6.3323     0.9421    26.1021 </r>
       <r>    -6.2417     3.4804    26.4173 </r>
       <r>    -6.1512     8.6960    27.2049 </r>
       <r>    -6.0606    14.6140    28.5286 </r>
       <r>    -5.9700    16.5216    30.0250 </r>
       <r>    -5.8795    12.5660    31.1631 </r>
       <r>    -5.7889     6.4289    31.7454 </r>
       <r>    -5.6983     2.2116    31.9457 </r>
       <r>    -5.6077     0.5113    31.9920 </r>
       <r>    -5.5172     0.0794    31.9992 </r>
       <r>    -5.4266     0.0083    31.9999 </r>
       <r>    -5.3360     0.0006    32.0000 </r>
       <r>    -5.2454     0.0000    32.0000 </r>
       <r>    -5.1549     0.0000    32.0000 </r>
       <r>    -5.0643     0.0000    32.0000 </r>
       <r>    -4.9737     0.0000    32.0000 </r>
       <r>    -4.8832     0.0000    32.0000 </r>
       <r>    -4.7926     0.0000    32.0000 </r>
       <r>    -4.7020     0.0000    32.0000 </r>
       <r>    -4.6114     0.0000    32.0000 </r>
       <r>    -4.5209     0.0000    32.0000 </r>
       <r>    -4.4303     0.0000    32.0000 </r>
       <r>    -4.3397     0.0000    32.0000 </r>
       <r>    -4.2491     0.0000    32.0000 </r>
       <r>    -4.1586     0.0000    32.0000 </r>
       <r>    -4.0680     0.0000    32.0000 </r>
       <r>    -3.9774     0.0000    32.0000 </r>
       <r>    -3.8869     0.0000    32.0000 </r>
       <r>    -3.7963     0.0000    32.0000 </r>
       <r>    -3.7057     0.0000    32.0000 </r>
       <r>    -3.6151     0.0000    32.0000 </r>
       <r>    -3.5246     0.0000    32.0000 </r>
       <r>    -3.4340     0.0000    32.0000 </r>
       <r>    -3.3434     0.0000    32.0000 </r>
       <r>    -3.2529     0.0000    32.0000 </r>
       <r>    -3.1623     0.0000    32.0000 </r>
       <r>    -3.0717     0.0000    32.0000 </r>
       <r>    -2.9811     0.0000    32.0000 </r>
       <r>    -2.8906     0.0000    32.0000 </r>
       <r>    -2.8000     0.0000    32.0000 </r>
       <r>    -2.7094     0.0000    32.0000 </r>
       <r>    -2.6188     0.0000    32.0000 </r>
       <r>    -2.5283     0.0000    32.0000 </r>
       <r>    -2.4377     0.0000    32.0000 </r>
       <r>    -2.3471     0.0000    32.0000 </r>
       <r>    -2.2566     0.0000    32.0000 </r>
       <r>    -2.1660     0.0000    32.0000 </r>
       <r>    -2.0754     0.0000    32.0000 </r>
       <r>    -1.9848     0.0000    32.0000 </r>
       <r>    -1.8943     0.0000    32.0000 </r>
       <r>    -1.8037     0.0003    32.0000 </r>
       <r>    -1.7131     0.0041    32.0004 </r>
       <r>    -1.6225     0.0372    32.0038 </r>
       <r>    -1.5320     0.2240    32.0241 </r>
       <r>    -1.4414     0.9063    32.1061 </r>
       <r>    -1.3508     2.4650    32.3294 </r>
       <r>    -1.2603     4.5082    32.7377 </r>
       <r>    -1.1697     5.5464    33.2401 </r>
       <r>    -1.0791     4.5907    33.6559 </r>
       <r>    -0.9885     2.5560    33.8874 </r>
       <r>    -0.8980     0.9570    33.9740 </r>
       <r>    -0.8074     0.2408    33.9959 </r>
       <r>    -0.7168     0.0407    33.9995 </r>
       <r>    -0.6262     0.0046    34.0000 </r>
       <r>    -0.5357     0.0004    34.0000 </r>
       <r>    -0.4451     0.0004    34.0000 </r>
       <r>    -0.3545     0.0054    34.0005 </r>
       <r>    -0.2640     0.0554    34.0055 </r>
       <r>    -0.1734     0.3816    34.0401 </r>
       <r>    -0.0828     1.7669    34.2001 </r>
       <r>     0.0078     5.4989    34.6982 </r>
       <r>     0.0983    11.5088    35.7406 </r>
       <r>     0.1889    16.2053    37.2083 </r>
       <r>     0.2795    15.3547    38.5990 </r>
       <r>     0.3701     9.7898    39.4857 </r>
       <r>     0.4606     4.1989    39.8660 </r>
       <r>     0.5512     1.2110    39.9757 </r>
       <r>     0.6418     0.2347    39.9970 </r>
       <r>     0.7323     0.0305    39.9997 </r>
       <r>     0.8229     0.0027    40.0000 </r>
       <r>     0.9135     0.0002    40.0000 </r>
       <r>     1.0041     0.0000    40.0000 </r>
       <r>     1.0946     0.0000    40.0000 </r>
       <r>     1.1852     0.0000    40.0000 </r>
       <r>     1.2758     0.0000    40.0000 </r>
       <r>     1.3664     0.0000    40.0000 </r>
       <r>     1.4569     0.0000    40.0000 </r>
       <r>     1.5475     0.0000    40.0000 </r>
       <r>     1.6381     0.0000    40.0000 </r>
       <r>     1.7286     0.0000    40.0000 </r>
       <r>     1.8192     0.0000    40.0000 </r>
       <r>     1.9098     0.0000    40.0000 </r>
       <r>     2.0004     0.0000    40.0000 </r>
       <r>     2.0909     0.0000    40.0000 </r>
       <r>     2.1815     0.0000    40.0000 </r>
      </set>
     </set>
    </array>
   </total>
  </dos>
 </calculation>
 <structure name="finalpos" >
  <crystal>
   <varray name="basis" >
    <v>       8.00000000       0.00000000       0.00000000 </v>
    <v>       0.00000000       8.00000000       0.00000000 </v>
    <v>       0.00000000       0.00000000       8.00000000 </v>
   </varray>
   <i name="volume">    512.00000000 </i>
   <varray name="rec_basis" >
    <v>       0.12500000       0.00000000       0.00000000 </v>
    <v>       0.00000000       0.12500000       0.00000000 </v>
    <v>       0.00000000       0.00000000       0.12500000 </v>
   </varray>
  </crystal>
  <varray name="positions" >
   <v>       0.00000000       0.00000000       0.00000000 </v>
   <v>       0.12825951       0.12825951       0.12825951 </v>
   <v>       0.87174049       0.87174049       0.12825951 </v>
   <v>       0.87174049       0.12825951       0.87174049 </v>
   <v>       0.12825951       0.87174049       0.87174049 </v>
  </varray>
 </structure>
</modeling>
