 running on    1 nodes
 distr:  one band on    1 nodes,    1 groups
 vasp.5.2.12 11Nov11 complex                                                    
  
 POSCAR found :  2 types and       5 ions
 LDA part: xc-table for Pade appr. of Perdew
 POSCAR, INCAR and KPOINTS ok, starting setup
 WARNING: small aliasing (wrap around) errors must be expected
 FFT: planning ...(           2 )
 WAVECAR not read
 entering main loop
       N       E                     dE             d eps       ncg     rms          rms(c)
DAV:   1     0.294402841298E+03    0.29440E+03   -0.12147E+04    56   0.111E+03
DAV:   2     0.245693704745E+02   -0.26983E+03   -0.26193E+03    64   0.251E+02
DAV:   3    -0.265044223013E+02   -0.51074E+02   -0.50948E+02    40   0.125E+02
DAV:   4    -0.275716624749E+02   -0.10672E+01   -0.10665E+01    48   0.201E+01
DAV:   5    -0.275961503205E+02   -0.24488E-01   -0.24486E-01    56   0.284E+00    0.911E+00
DAV:   6    -0.258729532793E+02    0.17232E+01   -0.87541E+00    48   0.211E+01    0.374E+00
DAV:   7    -0.258546717221E+02    0.18282E-01   -0.34357E-01    40   0.476E+00    0.208E+00
DAV:   8    -0.258602433048E+02   -0.55716E-02   -0.46458E-02    56   0.203E+00    0.255E-01
DAV:   9    -0.258611936970E+02   -0.95039E-03   -0.79275E-03    40   0.670E-01    0.111E-01
DAV:  10    -0.258614903787E+02   -0.29668E-03   -0.49479E-04    48   0.240E-01    0.221E-02
DAV:  11    -0.258615756269E+02   -0.85248E-04   -0.55642E-05    24   0.647E-02
   1 F= -.25861576E+02 E0= -.25861576E+02  d E =-.258616E+02
 curvature:   0.00 expect dE= 0.000E+00 dE for cont linesearch  0.000E+00
 trial: gam= 0.00000 g(F)=  0.136E+00 g(S)=  0.000E+00 ort = 0.000E+00 (trialstep = 0.100E+01)
 search vector abs. value=  0.136E+00
 bond charge predicted
       N       E                     dE             d eps       ncg     rms          rms(c)
DAV:   1    -0.257498877515E+02    0.11160E+00   -0.48867E+01    48   0.638E+01    0.186E+00
DAV:   2    -0.258338058915E+02   -0.83918E-01   -0.12726E+00    48   0.937E+00    0.983E-01
DAV:   3    -0.258247546693E+02    0.90512E-02   -0.16764E-02    48   0.130E+00    0.602E-01
DAV:   4    -0.258266106245E+02   -0.18560E-02   -0.28042E-02    48   0.135E+00    0.176E-01
DAV:   5    -0.258268597079E+02   -0.24908E-03   -0.17312E-02    48   0.910E-01    0.151E-01
DAV:   6    -0.258263120228E+02    0.54769E-03   -0.24901E-03    48   0.394E-01    0.360E-02
DAV:   7    -0.258264275475E+02   -0.11552E-03   -0.48567E-04    32   0.127E-01    0.194E-02
DAV:   8    -0.258264493452E+02   -0.21798E-04   -0.10415E-05    32   0.287E-02
   2 F= -.25826449E+02 E0= -.25826449E+02  d E =0.351263E-01
 trial-energy change:    0.035126  1 .order    0.027969   -0.135709    0.191648
 step:   0.3835(harm=  0.4146)  dis= 0.00896  next Energy=   -25.887197 (dE=-0.256E-01)
 bond charge predicted
       N       E                     dE             d eps       ncg     rms          rms(c)
DAV:   1    -0.258593026395E+02   -0.32875E-01   -0.18448E+01    48   0.400E+01    0.105E+00
DAV:   2    -0.258899559373E+02   -0.30653E-01   -0.43423E-01    40   0.538E+00    0.600E-01
DAV:   3    -0.258864605568E+02    0.34954E-02   -0.57656E-03    48   0.768E-01    0.370E-01
DAV:   4    -0.258874076083E+02   -0.94705E-03   -0.15369E-02    48   0.928E-01    0.111E-01
DAV:   5    -0.258872975251E+02    0.11008E-03   -0.10217E-03    44   0.244E-01    0.900E-02
DAV:   6    -0.258871472983E+02    0.15023E-03   -0.16544E-03    40   0.257E-01    0.319E-02
DAV:   7    -0.258872439035E+02   -0.96605E-04   -0.39491E-04    40   0.140E-01
   3 F= -.25887244E+02 E0= -.25887244E+02  d E =-.256683E-01
 curvature:  -0.21 expect dE=-0.566E-05 dE for cont linesearch -0.566E-05
 trial: gam= 0.00000 g(F)=  0.274E-04 g(S)=  0.000E+00 ort =-0.193E-02 (trialstep = 0.877E+00)
 search vector abs. value=  0.274E-04
 reached required accuracy - stopping structural energy minimisation
 writing wavefunctions
NPROCS =  1
