   5   5   0   0
  0.1024000E+03  0.8000000E-09  0.8000000E-09  0.8000000E-09  0.5000000E-15
  1.000000000000000E-004
  CAR 
 unknown system                          
      3.94530605    -35.95639192  301     -8.81908088      1.00000000
    -35.956  0.0000E+00  0.0000E+00
    -35.823  0.0000E+00  0.0000E+00
    -35.690  0.0000E+00  0.0000E+00
    -35.557  0.0000E+00  0.0000E+00
    -35.424  0.0000E+00  0.0000E+00
    -35.291  0.0000E+00  0.0000E+00
    -35.158  0.0000E+00  0.0000E+00
    -35.025  0.3063E-13  0.4075E-14
    -34.892  0.2731E-10  0.3636E-11
    -34.759  0.1024E-07  0.1365E-08
    -34.626  0.1619E-05  0.2167E-06
    -34.493  0.1086E-03  0.1466E-04
    -34.360  0.3113E-02  0.4287E-03
    -34.227  0.3843E-01  0.5540E-02
    -34.094  0.2060E+00  0.3294E-01
    -33.961  0.4833E+00  0.9723E-01
    -33.828  0.4982E+00  0.1635E+00
    -33.695  0.2257E+00  0.1935E+00
    -33.562  0.4476E-01  0.1995E+00
    -33.429  0.3858E-02  0.2000E+00
    -33.296  0.1433E-03  0.2000E+00
    -33.163  0.2275E-05  0.2000E+00
    -33.030  0.1533E-07  0.2000E+00
    -32.897  0.4359E-10  0.2000E+00
    -32.764  0.5209E-13  0.2000E+00
    -32.631  0.0000E+00  0.2000E+00
    -32.498  0.0000E+00  0.2000E+00
    -32.365  0.0000E+00  0.2000E+00
    -32.232  0.1502E-14  0.2000E+00
    -32.099  0.2201E-11  0.2000E+00
    -31.966  0.1327E-08  0.2000E+00
    -31.833  0.3366E-06  0.2000E+00
    -31.700  0.3610E-04  0.2000E+00
    -31.567  0.1648E-02  0.2002E+00
    -31.434  0.3225E-01  0.2045E+00
    -31.301  0.2728E+00  0.2408E+00
    -31.168  0.1006E+01  0.3746E+00
    -31.035  0.1627E+01  0.5911E+00
    -30.902  0.1157E+01  0.7450E+00
    -30.769  0.3613E+00  0.7931E+00
    -30.636  0.4921E-01  0.7996E+00
    -30.503  0.2903E-02  0.8000E+00
    -30.370  0.7350E-04  0.8000E+00
    -30.237  0.7929E-06  0.8000E+00
    -30.104  0.3621E-08  0.8000E+00
    -29.971  0.6962E-11  0.8000E+00
    -29.838  0.5509E-14  0.8000E+00
    -29.705  0.0000E+00  0.8000E+00
    -29.572  0.0000E+00  0.8000E+00
    -29.439  0.0000E+00  0.8000E+00
    -29.306  0.0000E+00  0.8000E+00
    -29.173  0.0000E+00  0.8000E+00
    -29.040  0.0000E+00  0.8000E+00
    -28.907  0.0000E+00  0.8000E+00
    -28.774  0.0000E+00  0.8000E+00
    -28.641  0.0000E+00  0.8000E+00
    -28.508  0.0000E+00  0.8000E+00
    -28.375  0.0000E+00  0.8000E+00
    -28.242  0.0000E+00  0.8000E+00
    -28.109  0.0000E+00  0.8000E+00
    -27.976  0.0000E+00  0.8000E+00
    -27.843  0.0000E+00  0.8000E+00
    -27.710  0.0000E+00  0.8000E+00
    -27.577  0.0000E+00  0.8000E+00
    -27.444  0.0000E+00  0.8000E+00
    -27.311  0.0000E+00  0.8000E+00
    -27.178  0.0000E+00  0.8000E+00
    -27.045  0.0000E+00  0.8000E+00
    -26.912  0.0000E+00  0.8000E+00
    -26.779  0.0000E+00  0.8000E+00
    -26.646  0.0000E+00  0.8000E+00
    -26.513  0.0000E+00  0.8000E+00
    -26.380  0.0000E+00  0.8000E+00
    -26.247  0.0000E+00  0.8000E+00
    -26.114  0.0000E+00  0.8000E+00
    -25.981  0.0000E+00  0.8000E+00
    -25.848  0.0000E+00  0.8000E+00
    -25.715  0.0000E+00  0.8000E+00
    -25.582  0.0000E+00  0.8000E+00
    -25.449  0.0000E+00  0.8000E+00
    -25.316  0.0000E+00  0.8000E+00
    -25.183  0.0000E+00  0.8000E+00
    -25.050  0.0000E+00  0.8000E+00
    -24.917  0.0000E+00  0.8000E+00
    -24.784  0.0000E+00  0.8000E+00
    -24.651  0.0000E+00  0.8000E+00
    -24.518  0.0000E+00  0.8000E+00
    -24.385  0.0000E+00  0.8000E+00
    -24.252  0.0000E+00  0.8000E+00
    -24.119  0.0000E+00  0.8000E+00
    -23.986  0.0000E+00  0.8000E+00
    -23.853  0.0000E+00  0.8000E+00
    -23.720  0.0000E+00  0.8000E+00
    -23.587  0.0000E+00  0.8000E+00
    -23.454  0.0000E+00  0.8000E+00
    -23.321  0.0000E+00  0.8000E+00
    -23.188  0.0000E+00  0.8000E+00
    -23.055  0.0000E+00  0.8000E+00
    -22.922  0.0000E+00  0.8000E+00
    -22.789  0.0000E+00  0.8000E+00
    -22.656  0.0000E+00  0.8000E+00
    -22.523  0.0000E+00  0.8000E+00
    -22.390  0.0000E+00  0.8000E+00
    -22.257  0.0000E+00  0.8000E+00
    -22.124  0.0000E+00  0.8000E+00
    -21.991  0.0000E+00  0.8000E+00
    -21.858  0.0000E+00  0.8000E+00
    -21.725  0.0000E+00  0.8000E+00
    -21.592  0.0000E+00  0.8000E+00
    -21.459  0.0000E+00  0.8000E+00
    -21.326  0.0000E+00  0.8000E+00
    -21.193  0.0000E+00  0.8000E+00
    -21.060  0.0000E+00  0.8000E+00
    -20.927  0.0000E+00  0.8000E+00
    -20.794  0.0000E+00  0.8000E+00
    -20.661  0.0000E+00  0.8000E+00
    -20.528  0.0000E+00  0.8000E+00
    -20.395  0.0000E+00  0.8000E+00
    -20.262  0.0000E+00  0.8000E+00
    -20.129  0.0000E+00  0.8000E+00
    -19.996  0.0000E+00  0.8000E+00
    -19.863  0.0000E+00  0.8000E+00
    -19.730  0.0000E+00  0.8000E+00
    -19.597  0.0000E+00  0.8000E+00
    -19.464  0.0000E+00  0.8000E+00
    -19.331  0.0000E+00  0.8000E+00
    -19.198  0.0000E+00  0.8000E+00
    -19.065  0.0000E+00  0.8000E+00
    -18.932  0.0000E+00  0.8000E+00
    -18.799  0.0000E+00  0.8000E+00
    -18.666  0.1210E-13  0.8000E+00
    -18.533  0.1208E-10  0.8000E+00
    -18.400  0.5055E-08  0.8000E+00
    -18.267  0.8919E-06  0.8000E+00
    -18.134  0.6671E-04  0.8000E+00
    -18.001  0.2129E-02  0.8003E+00
    -17.868  0.2924E-01  0.8042E+00
    -17.735  0.1743E+00  0.8274E+00
    -17.602  0.4539E+00  0.8877E+00
    -17.469  0.5194E+00  0.9568E+00
    -17.336  0.2613E+00  0.9916E+00
    -17.203  0.5758E-01  0.9992E+00
    -17.070  0.5519E-02  0.1000E+01
    -16.937  0.2282E-03  0.1000E+01
    -16.804  0.4039E-05  0.1000E+01
    -16.671  0.3036E-07  0.1000E+01
    -16.538  0.9637E-10  0.1000E+01
    -16.405  0.1285E-12  0.1000E+01
    -16.272  0.2003E-14  0.1000E+01
    -16.139  0.2665E-11  0.1000E+01
    -16.006  0.1568E-08  0.1000E+01
    -15.873  0.3882E-06  0.1000E+01
    -15.740  0.4065E-04  0.1000E+01
    -15.607  0.1812E-02  0.1000E+01
    -15.474  0.3463E-01  0.1005E+01
    -15.341  0.2862E+00  0.1043E+01
    -15.208  0.1031E+01  0.1180E+01
    -15.075  0.1630E+01  0.1397E+01
    -14.941  0.1133E+01  0.1548E+01
    -14.808  0.3455E+00  0.1594E+01
    -14.675  0.4598E-01  0.1600E+01
    -14.542  0.2649E-02  0.1600E+01
    -14.409  0.6550E-04  0.1600E+01
    -14.276  0.6898E-06  0.1600E+01
    -14.143  0.3075E-08  0.1600E+01
    -14.010  0.5771E-11  0.1600E+01
    -13.877  0.4507E-14  0.1600E+01
    -13.744  0.0000E+00  0.1600E+01
    -13.611  0.0000E+00  0.1600E+01
    -13.478  0.0000E+00  0.1600E+01
    -13.345  0.0000E+00  0.1600E+01
    -13.212  0.0000E+00  0.1600E+01
    -13.079  0.0000E+00  0.1600E+01
    -12.946  0.0000E+00  0.1600E+01
    -12.813  0.0000E+00  0.1600E+01
    -12.680  0.0000E+00  0.1600E+01
    -12.547  0.3356E-13  0.1600E+01
    -12.414  0.3211E-10  0.1600E+01
    -12.281  0.1293E-07  0.1600E+01
    -12.148  0.2197E-05  0.1600E+01
    -12.015  0.1582E-03  0.1600E+01
    -11.882  0.4866E-02  0.1601E+01
    -11.749  0.6440E-01  0.1609E+01
    -11.616  0.3699E+00  0.1658E+01
    -11.483  0.9300E+00  0.1782E+01
    -11.350  0.1044E+01  0.1921E+01
    -11.217  0.6830E+00  0.2012E+01
    -11.084  0.9219E+00  0.2134E+01
    -10.951  0.1583E+01  0.2345E+01
    -10.818  0.1334E+01  0.2522E+01
    -10.685  0.4965E+00  0.2588E+01
    -10.552  0.8077E-01  0.2599E+01
    -10.419  0.5707E-02  0.2600E+01
    -10.286  0.6049E-03  0.2600E+01
    -10.153  0.1162E-01  0.2602E+01
    -10.020  0.1346E+00  0.2620E+01
     -9.887  0.6782E+00  0.2710E+01
     -9.754  0.1495E+01  0.2909E+01
     -9.621  0.1449E+01  0.3101E+01
     -9.488  0.6171E+00  0.3183E+01
     -9.355  0.1150E+00  0.3199E+01
     -9.222  0.9303E-02  0.3200E+01
     -9.089  0.3242E-03  0.3200E+01
     -8.956  0.4827E-05  0.3200E+01
     -8.823  0.3049E-07  0.3200E+01
     -8.690  0.8124E-10  0.3200E+01
     -8.557  0.9115E-13  0.3200E+01
     -8.424  0.0000E+00  0.3200E+01
     -8.291  0.0000E+00  0.3200E+01
     -8.158  0.0000E+00  0.3200E+01
     -8.025  0.0000E+00  0.3200E+01
     -7.892  0.0000E+00  0.3200E+01
     -7.759  0.0000E+00  0.3200E+01
     -7.626  0.0000E+00  0.3200E+01
     -7.493  0.0000E+00  0.3200E+01
     -7.360  0.0000E+00  0.3200E+01
     -7.227  0.0000E+00  0.3200E+01
     -7.094  0.0000E+00  0.3200E+01
     -6.961  0.0000E+00  0.3200E+01
     -6.828  0.0000E+00  0.3200E+01
     -6.695  0.0000E+00  0.3200E+01
     -6.562  0.0000E+00  0.3200E+01
     -6.429  0.0000E+00  0.3200E+01
     -6.296  0.0000E+00  0.3200E+01
     -6.163  0.0000E+00  0.3200E+01
     -6.030  0.0000E+00  0.3200E+01
     -5.897  0.0000E+00  0.3200E+01
     -5.764  0.0000E+00  0.3200E+01
     -5.631  0.0000E+00  0.3200E+01
     -5.498  0.0000E+00  0.3200E+01
     -5.365  0.0000E+00  0.3200E+01
     -5.232  0.0000E+00  0.3200E+01
     -5.099  0.0000E+00  0.3200E+01
     -4.966  0.0000E+00  0.3200E+01
     -4.833  0.0000E+00  0.3200E+01
     -4.700  0.0000E+00  0.3200E+01
     -4.567  0.0000E+00  0.3200E+01
     -4.434  0.0000E+00  0.3200E+01
     -4.301  0.0000E+00  0.3200E+01
     -4.168  0.0000E+00  0.3200E+01
     -4.035  0.0000E+00  0.3200E+01
     -3.902  0.0000E+00  0.3200E+01
     -3.769  0.0000E+00  0.3200E+01
     -3.636  0.0000E+00  0.3200E+01
     -3.503  0.0000E+00  0.3200E+01
     -3.370  0.0000E+00  0.3200E+01
     -3.237  0.0000E+00  0.3200E+01
     -3.104  0.0000E+00  0.3200E+01
     -2.971  0.0000E+00  0.3200E+01
     -2.838  0.0000E+00  0.3200E+01
     -2.705  0.0000E+00  0.3200E+01
     -2.572  0.0000E+00  0.3200E+01
     -2.439  0.0000E+00  0.3200E+01
     -2.306  0.0000E+00  0.3200E+01
     -2.173  0.0000E+00  0.3200E+01
     -2.040  0.0000E+00  0.3200E+01
     -1.907  0.0000E+00  0.3200E+01
     -1.774  0.0000E+00  0.3200E+01
     -1.641  0.0000E+00  0.3200E+01
     -1.508  0.1669E-15  0.3200E+01
     -1.375  0.2863E-12  0.3200E+01
     -1.242  0.1943E-09  0.3200E+01
     -1.109  0.5545E-07  0.3200E+01
     -0.976  0.6688E-05  0.3200E+01
     -0.843  0.3429E-03  0.3200E+01
     -0.710  0.7528E-02  0.3201E+01
     -0.577  0.7138E-01  0.3211E+01
     -0.444  0.2947E+00  0.3250E+01
     -0.311  0.5332E+00  0.3321E+01
     -0.178  0.4242E+00  0.3377E+01
     -0.045  0.1482E+00  0.3397E+01
      0.088  0.2262E-01  0.3400E+01
      0.221  0.1496E-02  0.3400E+01
      0.354  0.4254E-04  0.3400E+01
      0.487  0.5158E-06  0.3400E+01
      0.620  0.2649E-08  0.3400E+01
      0.753  0.5734E-11  0.3400E+01
      0.886  0.1614E-12  0.3400E+01
      1.019  0.1308E-09  0.3400E+01
      1.152  0.4598E-07  0.3400E+01
      1.285  0.6824E-05  0.3400E+01
      1.418  0.4298E-03  0.3400E+01
      1.551  0.1157E-01  0.3402E+01
      1.684  0.1343E+00  0.3419E+01
      1.817  0.6772E+00  0.3510E+01
      1.950  0.1495E+01  0.3708E+01
      2.083  0.1450E+01  0.3901E+01
      2.216  0.6181E+00  0.3983E+01
      2.349  0.1153E+00  0.3999E+01
      2.482  0.9339E-02  0.4000E+01
      2.615  0.3258E-03  0.4000E+01
      2.748  0.4856E-05  0.4000E+01
      2.881  0.3071E-07  0.4000E+01
      3.014  0.8192E-10  0.4000E+01
      3.147  0.9215E-13  0.4000E+01
      3.280  0.0000E+00  0.4000E+01
      3.413  0.0000E+00  0.4000E+01
      3.546  0.0000E+00  0.4000E+01
      3.679  0.0000E+00  0.4000E+01
      3.812  0.0000E+00  0.4000E+01
      3.945  0.0000E+00  0.4000E+01
