    5    5   10    1
  0.1024000E+03  0.8000000E-09  0.8000000E-09  0.8000000E-09  0.5000000E-15
  1.000000000000000E-004
  CAR 
 unknown system                          
   32    1   20
 
  0.0000000E+00  0.0000000E+00  0.0000000E+00  0.1000000E+01
   1      -33.956392
   2      -31.090360
   3      -31.090360
   4      -31.090360
   5      -17.579786
   6      -15.133407
   7      -15.133407
   8      -15.133407
   9      -11.467391
  10      -11.467391
  11      -10.978114
  12      -10.978114
  13      -10.978114
  14       -9.759365
  15       -9.759365
  16       -9.759365
  17       -0.347901
  18        1.945306
  19        1.945306
  20        1.945306
