<?xml version="1.0" encoding="ISO-8859-1"?>
<modeling>
 <generator>
  <i name="program" type="string">vasp </i>
  <i name="version" type="string">5.2.12  </i>
  <i name="subversion" type="string">11Nov11 complex                                                      parallel </i>
  <i name="platform" type="string">LinuxIFC </i>
  <i name="date" type="string">2012 11 03 </i>
  <i name="time" type="string">02:53:42 </i>
 </generator>
 <incar>
  <i type="string" name="PREC">normal</i>
  <i type="int" name="IBRION">     2</i>
  <i type="int" name="NSW">    10</i>
  <i name="ENCUT">    500.00000000</i>
  <i type="int" name="ISMEAR">     0</i>
 </incar>
 <kpoints>
  <generation param="Monkhorst-Pack">
   <v type="int" name="divisions">       1        1        1 </v>
   <v name="usershift">      0.00000000       0.00000000       0.00000000 </v>
   <v name="genvec1">      1.00000000       0.00000000       0.00000000 </v>
   <v name="genvec2">      0.00000000       1.00000000       0.00000000 </v>
   <v name="genvec3">      0.00000000       0.00000000       1.00000000 </v>
   <v name="shift">      0.00000000       0.00000000       0.00000000 </v>
  </generation>
  <varray name="kpointlist" >
   <v>       0.00000000       0.00000000       0.00000000 </v>
  </varray>
  <varray name="weights" >
   <v>       1.00000000 </v>
  </varray>
 </kpoints>
 <parameters>
  <separator name="general" >
   <i type="string" name="SYSTEM">unknown system</i>
   <i type="logical" name="LCOMPAT"> F  </i>
  </separator>
  <separator name="electronic" >
   <i type="string" name="PREC">normal</i>
   <i name="ENMAX">    500.00000000</i>
   <i name="ENAUG">    644.87300000</i>
   <i name="EDIFF">      0.00010000</i>
   <i type="int" name="IALGO">    38</i>
   <i type="int" name="IWAVPR">    11</i>
   <i type="int" name="NBANDS">    20</i>
   <i name="NELECT">     32.00000000</i>
   <i type="int" name="TURBO">     0</i>
   <i type="int" name="IRESTART">     0</i>
   <i type="int" name="NREBOOT">     0</i>
   <i type="int" name="NMIN">     0</i>
   <i name="EREF">      0.00000000</i>
   <separator name="electronic smearing" >
    <i type="int" name="ISMEAR">     0</i>
    <i name="SIGMA">      0.20000000</i>
    <i name="KSPACING">      0.50000000</i>
    <i type="logical" name="KGAMMA"> T  </i>
   </separator>
   <separator name="electronic projectors" >
    <i type="logical" name="LREAL"> F  </i>
    <v name="ROPT">      0.00000000      0.00000000</v>
    <i type="int" name="LMAXPAW">  -100</i>
    <i type="int" name="LMAXMIX">     2</i>
    <i type="logical" name="NLSPLINE"> F  </i>
   </separator>
   <separator name="electronic startup" >
    <i type="int" name="ISTART">     0</i>
    <i type="int" name="ICHARG">     2</i>
    <i type="int" name="INIWAV">     1</i>
   </separator>
   <separator name="electronic spin" >
    <i type="int" name="ISPIN">     1</i>
    <i type="logical" name="LNONCOLLINEAR"> F  </i>
    <v name="MAGMOM">      1.00000000      1.00000000      1.00000000      1.00000000      1.00000000</v>
    <i name="NUPDOWN">     -1.00000000</i>
    <i type="logical" name="LSORBIT"> F  </i>
    <v name="SAXIS">      0.00000000      0.00000000      1.00000000</v>
    <i type="logical" name="LSPIRAL"> F  </i>
    <v name="QSPIRAL">      0.00000000      0.00000000      0.00000000</v>
    <i type="logical" name="LZEROZ"> F  </i>
   </separator>
   <separator name="electronic exchange-correlation" >
    <i type="logical" name="LASPH"> F  </i>
    <i type="logical" name="LMETAGGA"> F  </i>
   </separator>
   <separator name="electronic convergence" >
    <i type="int" name="NELM">    60</i>
    <i type="int" name="NELMDL">    -5</i>
    <i type="int" name="NELMIN">     2</i>
    <i name="ENINI">    500.00000000</i>
    <separator name="electronic convergence detail" >
     <i type="logical" name="LDIAG"> T  </i>
     <i type="logical" name="LSUBROT"> T  </i>
     <i name="WEIMIN">      0.00100000</i>
     <i name="EBREAK">      0.00000125</i>
     <i name="DEPER">      0.30000000</i>
     <i type="int" name="NRMM">     4</i>
     <i name="TIME">      0.40000000</i>
    </separator>
   </separator>
   <separator name="electronic mixer" >
    <i name="AMIX">      0.40000000</i>
    <i name="BMIX">      1.00000000</i>
    <i name="AMIN">      0.10000000</i>
    <i name="AMIX_MAG">      1.60000000</i>
    <i name="BMIX_MAG">      1.00000000</i>
    <separator name="electronic mixer details" >
     <i type="int" name="IMIX">     4</i>
     <i type="int" name="MAXMIX">   -45</i>
     <i name="WC">    100.00000000</i>
     <i type="int" name="INIMIX">     1</i>
     <i type="int" name="MIXPRE">     1</i>
     <i type="int" name="MREMOVE">     5</i>
    </separator>
   </separator>
   <separator name="electronic dipolcorrection" >
    <i type="logical" name="LDIPOL"> F  </i>
    <i type="logical" name="LMONO"> F  </i>
    <i type="int" name="IDIPOL">     0</i>
    <i name="EPSILON">      1.00000000</i>
    <v name="DIPOL">   -100.00000000   -100.00000000   -100.00000000</v>
    <i name="EFIELD">      0.00000000</i>
   </separator>
  </separator>
  <separator name="grids" >
   <i type="int" name="NGX">    48</i>
   <i type="int" name="NGY">    48</i>
   <i type="int" name="NGZ">    48</i>
   <i type="int" name="NGXF">    96</i>
   <i type="int" name="NGYF">    96</i>
   <i type="int" name="NGZF">    96</i>
   <i type="logical" name="ADDGRID"> F  </i>
  </separator>
  <separator name="ionic" >
   <i type="int" name="NSW">    10</i>
   <i type="int" name="IBRION">     2</i>
   <i type="int" name="ISIF">     2</i>
   <i name="PSTRESS">      0.00000000</i>
   <i name="EDIFFG">      0.00100000</i>
   <i type="int" name="NFREE">     1</i>
   <i name="POTIM">      0.50000000</i>
   <i name="SMASS">     -3.00000000</i>
   <i name="SCALEE">      1.00000000</i>
  </separator>
  <separator name="ionic md" >
   <i name="TEBEG">      0.00010000</i>
   <i name="TEEND">      0.00010000</i>
   <i type="int" name="NBLOCK">     1</i>
   <i type="int" name="KBLOCK">    10</i>
   <i type="int" name="NPACO">   256</i>
   <i name="APACO">     16.00000000</i>
  </separator>
  <separator name="symmetry" >
   <i type="int" name="ISYM">     2</i>
   <i name="SYMPREC">      0.00001000</i>
  </separator>
  <separator name="dos" >
   <i type="logical" name="LORBIT"> F  </i>
   <v name="RWIGS">     -1.00000000     -1.00000000</v>
   <i type="int" name="NEDOS">   301</i>
   <i name="EMIN">     10.00000000</i>
   <i name="EMAX">    -10.00000000</i>
   <i name="EFERMI">      0.00000000</i>
  </separator>
  <separator name="writing" >
   <i type="int" name="NWRITE">     2</i>
   <i type="logical" name="LWAVE"> T  </i>
   <i type="logical" name="LCHARG"> T  </i>
   <i type="logical" name="LPARD"> F  </i>
   <i type="logical" name="LVTOT"> F  </i>
   <i type="logical" name="LVHAR"> F  </i>
   <i type="logical" name="LELF"> F  </i>
   <i type="logical" name="LOPTICS"> F  </i>
   <v name="STM">      0.00000000      0.00000000      0.00000000      0.00000000      0.00000000      0.00000000      0.00000000</v>
  </separator>
  <separator name="performance" >
   <i type="int" name="NPAR">     1</i>
   <i type="int" name="NSIM">     4</i>
   <i type="int" name="NBLK">    -1</i>
   <i type="logical" name="LPLANE"> T  </i>
   <i type="logical" name="LSCALAPACK"> F  </i>
   <i type="logical" name="LSCAAWARE"> F  </i>
   <i type="logical" name="LSCALU"> F  </i>
   <i type="logical" name="LASYNC"> F  </i>
   <i type="logical" name="LORBITALREAL"> F  </i>
  </separator>
  <separator name="miscellaneous" >
   <i type="int" name="IDIOT">     3</i>
   <i type="logical" name="LMUSIC"> F  </i>
   <v name="POMASS">     12.01100000     18.99800000</v>
   <v name="DARWINR">      0.00000000      0.00000000</v>
   <v name="DARWINV">      1.00000000      1.00000000</v>
   <i type="logical" name="LCORR"> T  </i>
  </separator>
  <i type="logical" name="GGA_COMPAT"> T  </i>
  <i type="logical" name="LBERRY"> F  </i>
  <i type="int" name="ICORELEVEL">     0</i>
  <i type="logical" name="LDAU"> F  </i>
  <i type="int" name="I_CONSTRAINED_M">     0</i>
  <separator name="electronic exchange-correlation" >
   <i type="string" name="GGA">--</i>
   <i type="int" name="VOSKOWN">     0</i>
   <i type="logical" name="LHFCALC"> F  </i>
   <i type="string" name="PRECFOCK"></i>
   <i type="logical" name="LHFONE"> F  </i>
   <i type="logical" name="LRHFCALC"> F  </i>
   <i type="logical" name="LTHOMAS"> F  </i>
   <i type="logical" name="LMODELHF"> F  </i>
   <i name="ENCUT4O">     -1.00000000</i>
   <i type="int" name="EXXOEP">     0</i>
   <i type="int" name="FOURORBIT">     0</i>
   <i name="AEXX">      0.00000000</i>
   <i name="HFALPHA">      0.00000000</i>
   <i name="ALDAX">      1.00000000</i>
   <i name="AGGAX">      1.00000000</i>
   <i name="ALDAC">      1.00000000</i>
   <i name="AGGAC">      1.00000000</i>
   <i type="int" name="NKREDX">     1</i>
   <i type="int" name="NKREDY">     1</i>
   <i type="int" name="NKREDZ">     1</i>
   <i type="logical" name="SHIFTRED"> F  </i>
   <i type="logical" name="ODDONLY"> F  </i>
   <i type="logical" name="EVENONLY"> F  </i>
   <i type="int" name="LMAXFOCK">     0</i>
   <i type="int" name="NMAXFOCKAE">     0</i>
   <i type="logical" name="LFOCKAEDFT"> F  </i>
   <i name="HFSCREEN">      0.00000000</i>
   <i name="HFSCREENC">      0.00000000</i>
  </separator>
  <separator name="vdW DFT" >
   <i type="logical" name="LUSE_VDW"> F  </i>
   <i name="Zab_VDW">     -0.84910000</i>
   <i name="PARAM1">      0.12340000</i>
   <i name="PARAM2">      1.00000000</i>
   <i name="PARAM3">      0.00000000</i>
  </separator>
  <separator name="model GW" >
   <i type="int" name="MODEL_GW">     0</i>
   <i name="MODEL_EPS0">     61.44000000</i>
   <i name="MODEL_ALPHA">      1.00000000</i>
  </separator>
  <separator name="linear response parameters" >
   <i type="logical" name="LEPSILON"> F  </i>
   <i type="logical" name="LRPA"> F  </i>
   <i type="logical" name="LNABLA"> F  </i>
   <i type="logical" name="LVEL"> F  </i>
   <i type="int" name="KINTER">     0</i>
   <i name="CSHIFT">      0.10000000</i>
   <i name="OMEGAMAX">     -1.00000000</i>
  </separator>
  <separator name="orbital magnetization" >
   <i type="logical" name="NUCIND"> F  </i>
   <v name="MAGPOS">      0.00000000      0.00000000      0.00000000</v>
   <i type="logical" name="LNICSALL"> T  </i>
   <i type="logical" name="ORBITALMAG"> F  </i>
   <i type="logical" name="LMAGBLOCH"> F  </i>
   <i type="logical" name="LCHIMAG"> F  </i>
   <i type="logical" name="LGAUGE"> T  </i>
   <i type="int" name="MAGATOM">     0</i>
   <v name="MAGDIPOL">      0.00000000      0.00000000      0.00000000</v>
   <v name="AVECCONST">      0.00000000      0.00000000      0.00000000</v>
  </separator>
  <separator name="response functions" >
   <i type="logical" name="LADDER"> F  </i>
   <i type="logical" name="LHARTREE"> T  </i>
   <i type="int" name="IBSE">     0</i>
   <i type="logical" name="LTCTE"> F  </i>
   <i type="logical" name="LTETE"> F  </i>
   <i type="logical" name="LFXCEPS"> F  </i>
   <i type="logical" name="L2ORDER"> F  </i>
   <i type="logical" name="LUSEW"> F  </i>
   <i name="ENCUTGW">     -2.00000000</i>
   <i name="ENCUTGWSOFT">     -2.00000000</i>
   <i name="ENCUTLF">     -1.00000000</i>
   <i type="int" name="LMAXMP2">    -1</i>
   <i name="SCISSOR">      0.00000000</i>
   <i type="int" name="NOMEGA">     0</i>
   <i type="int" name="NOMEGAR">     0</i>
   <i type="int" name="NBANDSGW">    -1</i>
   <i type="int" name="NBANDSO">    -1</i>
   <i type="int" name="NBANDSV">    -1</i>
   <i name="OPTEMAX">      0.00000000</i>
   <i type="int" name="NELM">     1</i>
   <i type="int" name="DIM">     3</i>
   <i type="int" name="ANTIRES">     0</i>
   <i name="OMEGAMAX">    -30.00000000</i>
   <i name="OMEGATL">   -200.00000000</i>
   <i type="int" name="OMEGAGRID">     0</i>
   <i name="CSHIFT">     -0.10000000</i>
   <i type="logical" name="SELFENERGY"> F  </i>
   <i type="logical" name="LSPECTRAL"> F  </i>
   <i type="logical" name="ODDONLYGW"> F  </i>
   <i type="logical" name="EVENONLYGW"> F  </i>
   <i type="int" name="NKREDLFX">     1</i>
   <i type="int" name="NKREDLFY">     1</i>
   <i type="int" name="NKREDLFZ">     1</i>
   <i type="int" name="MAXMEM">  1800</i>
   <i type="int" name="TELESCOPE">     0</i>
  </separator>
 </parameters>
 <atominfo>
  <atoms>       5 </atoms>
  <types>       2 </types>
  <array name="atoms" >
   <dimension dim="1">ion</dimension>
   <field type="string">element</field>
   <field type="int">atomtype</field>
   <set>
    <rc><c>C </c><c>   1</c></rc>
    <rc><c>F </c><c>   2</c></rc>
    <rc><c>F </c><c>   2</c></rc>
    <rc><c>F </c><c>   2</c></rc>
    <rc><c>F </c><c>   2</c></rc>
   </set>
  </array>
  <array name="atomtypes" >
   <dimension dim="1">type</dimension>
   <field type="int">atomspertype</field>
   <field type="string">element</field>
   <field>mass</field>
   <field>valence</field>
   <field type="string">pseudopotential</field>
   <set>
    <rc><c>   1</c><c>C </c><c>     12.01100000</c><c>      4.00000000</c><c> PAW_PBE C 08Apr2002                    </c></rc>
    <rc><c>   4</c><c>F </c><c>     18.99800000</c><c>      7.00000000</c><c> PAW_PBE F 08Apr2002                    </c></rc>
   </set>
  </array>
 </atominfo>
 <structure name="initialpos" >
  <crystal>
   <varray name="basis" >
    <v>       8.00000000       0.00000000       0.00000000 </v>
    <v>       0.00000000       8.00000000       0.00000000 </v>
    <v>       0.00000000       0.00000000       8.00000000 </v>
   </varray>
   <i name="volume">    512.00000000 </i>
   <varray name="rec_basis" >
    <v>       0.12500000       0.00000000       0.00000000 </v>
    <v>       0.00000000       0.12500000       0.00000000 </v>
    <v>       0.00000000       0.00000000       0.12500000 </v>
   </varray>
  </crystal>
  <varray name="positions" >
   <v>       0.00000000       0.00000000       0.00000000 </v>
   <v>       0.09592950       0.09592950       0.09592950 </v>
   <v>       0.90407050       0.90407050       0.09592950 </v>
   <v>       0.90407050       0.09592950       0.90407050 </v>
   <v>       0.09592950       0.90407050       0.90407050 </v>
  </varray>
 </structure>
 <calculation>
  <scstep>
   <time name="dav">    1.80    1.80</time>
   <time name="total">    3.19    3.19</time>
   <energy>
    <i name="alphaZ">      7.54128431 </i>
    <i name="ewald">    639.40154998 </i>
    <i name="hartreedc">  -3017.86676483 </i>
    <i name="XCdc">    162.93165379 </i>
    <i name="pawpsdc">   1763.54531609 </i>
    <i name="pawaedc">  -1785.13761353 </i>
    <i name="eentropy">     -0.00285484 </i>
    <i name="bandstr">   -260.99364841 </i>
    <i name="atom">   2784.98391872 </i>
    <i name="e_fr_energy">    294.40284130 </i>
    <i name="e_wo_entrp">    294.40569614 </i>
    <i name="e_0_energy">    294.40426872 </i>
   </energy>
  </scstep>
  <scstep>
   <time name="dav">    1.99    1.99</time>
   <time name="total">    1.99    2.00</time>
   <energy>
    <i name="e_fr_energy">     24.56937047 </i>
    <i name="e_wo_entrp">     24.56937047 </i>
    <i name="e_0_energy">     24.56937047 </i>
   </energy>
  </scstep>
  <scstep>
   <time name="dav">    1.38    1.38</time>
   <time name="total">    1.39    1.55</time>
   <energy>
    <i name="e_fr_energy">    -26.50442230 </i>
    <i name="e_wo_entrp">    -26.50442230 </i>
    <i name="e_0_energy">    -26.50442230 </i>
   </energy>
  </scstep>
  <scstep>
   <time name="dav">    1.59    1.59</time>
   <time name="total">    1.59    2.47</time>
   <energy>
    <i name="e_fr_energy">    -27.57166247 </i>
    <i name="e_wo_entrp">    -27.57166247 </i>
    <i name="e_0_energy">    -27.57166247 </i>
   </energy>
  </scstep>
  <scstep>
   <time name="dav">    1.78    1.78</time>
   <time name="total">    2.08    2.48</time>
   <energy>
    <i name="e_fr_energy">    -27.59615032 </i>
    <i name="e_wo_entrp">    -27.59615032 </i>
    <i name="e_0_energy">    -27.59615032 </i>
   </energy>
  </scstep>
  <scstep>
   <time name="dav">    1.58    1.59</time>
   <time name="total">    3.19    3.20</time>
   <energy>
    <i name="e_fr_energy">    -25.87295328 </i>
    <i name="e_wo_entrp">    -25.87295328 </i>
    <i name="e_0_energy">    -25.87295328 </i>
   </energy>
  </scstep>
  <scstep>
   <time name="dav">    1.38    1.38</time>
   <time name="total">    3.00    3.01</time>
   <energy>
    <i name="e_fr_energy">    -25.85467172 </i>
    <i name="e_wo_entrp">    -25.85467172 </i>
    <i name="e_0_energy">    -25.85467172 </i>
   </energy>
  </scstep>
  <scstep>
   <time name="dav">    1.78    1.79</time>
   <time name="total">    3.44    3.45</time>
   <energy>
    <i name="e_fr_energy">    -25.86024330 </i>
    <i name="e_wo_entrp">    -25.86024330 </i>
    <i name="e_0_energy">    -25.86024330 </i>
   </energy>
  </scstep>
  <scstep>
   <time name="dav">    1.40    1.40</time>
   <time name="total">    3.07    3.54</time>
   <energy>
    <i name="e_fr_energy">    -25.86119370 </i>
    <i name="e_wo_entrp">    -25.86119370 </i>
    <i name="e_0_energy">    -25.86119370 </i>
   </energy>
  </scstep>
  <scstep>
   <time name="dav">    1.78    1.79</time>
   <time name="total">    3.72    3.75</time>
   <energy>
    <i name="e_fr_energy">    -25.86149038 </i>
    <i name="e_wo_entrp">    -25.86149038 </i>
    <i name="e_0_energy">    -25.86149038 </i>
   </energy>
  </scstep>
  <scstep>
   <time name="dav">    1.12    1.12</time>
   <time name="total">    2.67    2.68</time>
   <energy>
    <i name="alphaZ">      7.54128431 </i>
    <i name="ewald">    639.40154998 </i>
    <i name="hartreedc">  -3048.45770295 </i>
    <i name="XCdc">    165.44515799 </i>
    <i name="pawpsdc">   1994.04691018 </i>
    <i name="pawaedc">  -2016.10441059 </i>
    <i name="eentropy">      0.00000000 </i>
    <i name="bandstr">   -552.71828327 </i>
    <i name="atom">   2784.98391872 </i>
    <i name="e_fr_energy">    -25.86157563 </i>
    <i name="e_wo_entrp">    -25.86157563 </i>
    <i name="e_0_energy">    -25.86157563 </i>
   </energy>
  </scstep>
  <parameters_embedded>
   <separator name="dft+d2" >
    <i type="logical" name="LVDW"> F  </i>
   </separator>
  </parameters_embedded>
  <structure>
   <crystal>
    <varray name="basis" >
     <v>       8.00000000       0.00000000       0.00000000 </v>
     <v>       0.00000000       8.00000000       0.00000000 </v>
     <v>       0.00000000       0.00000000       8.00000000 </v>
    </varray>
    <i name="volume">    512.00000000 </i>
    <varray name="rec_basis" >
     <v>       0.12500000       0.00000000       0.00000000 </v>
     <v>       0.00000000       0.12500000       0.00000000 </v>
     <v>       0.00000000       0.00000000       0.12500000 </v>
    </varray>
   </crystal>
   <varray name="positions" >
    <v>       0.00000000       0.00000000       0.00000000 </v>
    <v>       0.09592950       0.09592950       0.09592950 </v>
    <v>       0.90407050       0.90407050       0.09592950 </v>
    <v>       0.90407050       0.09592950       0.90407050 </v>
    <v>       0.09592950       0.90407050       0.90407050 </v>
   </varray>
  </structure>
  <varray name="forces" >
   <v>       0.00000000       0.00000000       0.00000000 </v>
   <v>       0.48416968       0.48416968       0.48416968 </v>
   <v>      -0.48416968      -0.48416968       0.48416968 </v>
   <v>      -0.48416968       0.48416968      -0.48416968 </v>
   <v>       0.48416968      -0.48416968      -0.48416968 </v>
  </varray>
  <varray name="stress" >
   <v>       3.72969812       0.00000000       0.00000000 </v>
   <v>       0.00000000       3.72969812       0.00000000 </v>
   <v>       0.00000000       0.00000000       3.72969812 </v>
  </varray>
  <energy>
   <i name="e_fr_energy">    -25.86157563 </i>
   <i name="e_wo_entrp">    -25.86157563 </i>
   <i name="e_0_energy">      0.00000000 </i>
  </energy>
  <time name="totalsc">   34.88   38.90</time>
 </calculation>
 <calculation>
  <scstep>
   <time name="dav">    1.94    1.94</time>
   <time name="total">    4.06    4.31</time>
   <energy>
    <i name="alphaZ">      7.54128431 </i>
    <i name="ewald">    551.36431090 </i>
    <i name="hartreedc">  -2972.49642075 </i>
    <i name="XCdc">    164.89731591 </i>
    <i name="pawpsdc">   1993.80062237 </i>
    <i name="pawaedc">  -2015.86480394 </i>
    <i name="eentropy">      0.00000000 </i>
    <i name="bandstr">   -539.97611529 </i>
    <i name="atom">   2784.98391872 </i>
    <i name="e_fr_energy">    -25.74988775 </i>
    <i name="e_wo_entrp">    -25.74988775 </i>
    <i name="e_0_energy">    -25.74988775 </i>
   </energy>
  </scstep>
  <scstep>
   <time name="dav">    1.94    1.94</time>
   <time name="total">    3.93    3.94</time>
   <energy>
    <i name="e_fr_energy">    -25.83380589 </i>
    <i name="e_wo_entrp">    -25.83380589 </i>
    <i name="e_0_energy">    -25.83380589 </i>
   </energy>
  </scstep>
  <scstep>
   <time name="dav">    1.94    1.94</time>
   <time name="total">    3.88    3.90</time>
   <energy>
    <i name="e_fr_energy">    -25.82475467 </i>
    <i name="e_wo_entrp">    -25.82475467 </i>
    <i name="e_0_energy">    -25.82475467 </i>
   </energy>
  </scstep>
  <scstep>
   <time name="dav">    1.94    1.94</time>
   <time name="total">    3.89    3.94</time>
   <energy>
    <i name="e_fr_energy">    -25.82661062 </i>
    <i name="e_wo_entrp">    -25.82661062 </i>
    <i name="e_0_energy">    -25.82661062 </i>
   </energy>
  </scstep>
  <scstep>
   <time name="dav">    1.77    1.77</time>
   <time name="total">    3.66    3.74</time>
   <energy>
    <i name="e_fr_energy">    -25.82685971 </i>
    <i name="e_wo_entrp">    -25.82685971 </i>
    <i name="e_0_energy">    -25.82685971 </i>
   </energy>
  </scstep>
  <scstep>
   <time name="dav">    1.95    1.96</time>
   <time name="total">    3.91    3.98</time>
   <energy>
    <i name="e_fr_energy">    -25.82631202 </i>
    <i name="e_wo_entrp">    -25.82631202 </i>
    <i name="e_0_energy">    -25.82631202 </i>
   </energy>
  </scstep>
  <scstep>
   <time name="dav">    1.27    1.28</time>
   <time name="total">    2.99    3.33</time>
   <energy>
    <i name="e_fr_energy">    -25.82642755 </i>
    <i name="e_wo_entrp">    -25.82642755 </i>
    <i name="e_0_energy">    -25.82642755 </i>
   </energy>
  </scstep>
  <scstep>
   <time name="dav">    1.37    1.37</time>
   <time name="total">    2.87    3.10</time>
   <energy>
    <i name="alphaZ">      7.54128431 </i>
    <i name="ewald">    551.36431090 </i>
    <i name="hartreedc">  -2965.04250787 </i>
    <i name="XCdc">    164.56941469 </i>
    <i name="pawpsdc">   1964.51393923 </i>
    <i name="pawaedc">  -1986.35364440 </i>
    <i name="eentropy">      0.00000000 </i>
    <i name="bandstr">   -547.40316494 </i>
    <i name="atom">   2784.98391872 </i>
    <i name="e_fr_energy">    -25.82644935 </i>
    <i name="e_wo_entrp">    -25.82644935 </i>
    <i name="e_0_energy">    -25.82644935 </i>
   </energy>
  </scstep>
  <structure>
   <crystal>
    <varray name="basis" >
     <v>       8.00000000       0.00000000       0.00000000 </v>
     <v>       0.00000000       8.00000000       0.00000000 </v>
     <v>       0.00000000       0.00000000       8.00000000 </v>
    </varray>
    <i name="volume">    512.00000000 </i>
    <varray name="rec_basis" >
     <v>       0.12500000       0.00000000       0.00000000 </v>
     <v>       0.00000000       0.12500000       0.00000000 </v>
     <v>       0.00000000       0.00000000       0.12500000 </v>
    </varray>
   </crystal>
   <varray name="positions" >
    <v>       0.00000000       0.00000000       0.00000000 </v>
    <v>       0.09884920       0.09884920       0.09884920 </v>
    <v>       0.90115080       0.90115080       0.09884920 </v>
    <v>       0.90115080       0.09884920       0.90115080 </v>
    <v>       0.09884920       0.90115080       0.90115080 </v>
   </varray>
  </structure>
  <varray name="forces" >
   <v>       0.00000000       0.00000000       0.00000000 </v>
   <v>      -0.68374375      -0.68374375      -0.68374375 </v>
   <v>       0.68374375       0.68374375      -0.68374375 </v>
   <v>       0.68374375      -0.68374375       0.68374375 </v>
   <v>      -0.68374375       0.68374375       0.68374375 </v>
  </varray>
  <varray name="stress" >
   <v>      -7.88348506       0.00000000       0.00000000 </v>
   <v>       0.00000000      -7.88348506       0.00000000 </v>
   <v>       0.00000000       0.00000000      -7.88348506 </v>
  </varray>
  <energy>
   <i name="e_fr_energy">    -25.82644935 </i>
   <i name="e_wo_entrp">    -25.82644935 </i>
   <i name="e_0_energy">      0.00000000 </i>
  </energy>
  <time name="totalsc">   32.66   33.87</time>
 </calculation>
 <calculation>
  <scstep>
   <time name="dav">    1.91    1.91</time>
   <time name="total">    3.90    3.90</time>
   <energy>
    <i name="alphaZ">      7.54128431 </i>
    <i name="ewald">    604.95412603 </i>
    <i name="hartreedc">  -3011.03589126 </i>
    <i name="XCdc">    164.88719465 </i>
    <i name="pawpsdc">   1964.46816891 </i>
    <i name="pawaedc">  -1986.31043625 </i>
    <i name="eentropy">      0.00000000 </i>
    <i name="bandstr">   -555.34766775 </i>
    <i name="atom">   2784.98391872 </i>
    <i name="e_fr_energy">    -25.85930264 </i>
    <i name="e_wo_entrp">    -25.85930264 </i>
    <i name="e_0_energy">    -25.85930264 </i>
   </energy>
  </scstep>
  <scstep>
   <time name="dav">    1.67    1.67</time>
   <time name="total">    3.68    3.68</time>
   <energy>
    <i name="e_fr_energy">    -25.88995594 </i>
    <i name="e_wo_entrp">    -25.88995594 </i>
    <i name="e_0_energy">    -25.88995594 </i>
   </energy>
  </scstep>
  <scstep>
   <time name="dav">    1.92    1.92</time>
   <time name="total">    3.97    3.99</time>
   <energy>
    <i name="e_fr_energy">    -25.88646056 </i>
    <i name="e_wo_entrp">    -25.88646056 </i>
    <i name="e_0_energy">    -25.88646056 </i>
   </energy>
  </scstep>
  <scstep>
   <time name="dav">    1.92    1.92</time>
   <time name="total">    4.00    4.02</time>
   <energy>
    <i name="e_fr_energy">    -25.88740761 </i>
    <i name="e_wo_entrp">    -25.88740761 </i>
    <i name="e_0_energy">    -25.88740761 </i>
   </energy>
  </scstep>
  <scstep>
   <time name="dav">    1.79    1.79</time>
   <time name="total">    3.88    3.97</time>
   <energy>
    <i name="e_fr_energy">    -25.88729753 </i>
    <i name="e_wo_entrp">    -25.88729753 </i>
    <i name="e_0_energy">    -25.88729753 </i>
   </energy>
  </scstep>
  <scstep>
   <time name="dav">    1.67    1.67</time>
   <time name="total">    3.76    3.77</time>
   <energy>
    <i name="e_fr_energy">    -25.88714730 </i>
    <i name="e_wo_entrp">    -25.88714730 </i>
    <i name="e_0_energy">    -25.88714730 </i>
   </energy>
  </scstep>
  <scstep>
   <time name="dav">    1.68    1.68</time>
   <time name="total">    3.38    3.39</time>
   <energy>
    <i name="alphaZ">      7.54128431 </i>
    <i name="ewald">    604.95412603 </i>
    <i name="hartreedc">  -3015.79133734 </i>
    <i name="XCdc">    165.10409370 </i>
    <i name="pawpsdc">   1982.08534399 </i>
    <i name="pawaedc">  -2004.05527581 </i>
    <i name="eentropy">      0.00000000 </i>
    <i name="bandstr">   -550.70939752 </i>
    <i name="atom">   2784.98391872 </i>
    <i name="e_fr_energy">    -25.88724390 </i>
    <i name="e_wo_entrp">    -25.88724390 </i>
    <i name="e_0_energy">    -25.88724390 </i>
   </energy>
  </scstep>
  <structure>
   <crystal>
    <varray name="basis" >
     <v>       8.00000000       0.00000000       0.00000000 </v>
     <v>       0.00000000       8.00000000       0.00000000 </v>
     <v>       0.00000000       0.00000000       8.00000000 </v>
    </varray>
    <i name="volume">    512.00000000 </i>
    <varray name="rec_basis" >
     <v>       0.12500000       0.00000000       0.00000000 </v>
     <v>       0.00000000       0.12500000       0.00000000 </v>
     <v>       0.00000000       0.00000000       0.12500000 </v>
    </varray>
   </crystal>
   <varray name="positions" >
    <v>       0.00000000       0.00000000       0.00000000 </v>
    <v>       0.09704934       0.09704934       0.09704934 </v>
    <v>       0.90295066       0.90295066       0.09704934 </v>
    <v>       0.90295066       0.09704934       0.90295066 </v>
    <v>       0.09704934       0.90295066       0.90295066 </v>
   </varray>
  </structure>
  <varray name="forces" >
   <v>       0.00000000       0.00000000       0.00000000 </v>
   <v>      -0.00687912      -0.00687912      -0.00687912 </v>
   <v>       0.00687912       0.00687912      -0.00687912 </v>
   <v>       0.00687912      -0.00687912       0.00687912 </v>
   <v>      -0.00687912       0.00687912       0.00687912 </v>
  </varray>
  <varray name="stress" >
   <v>      -1.38359539       0.00000000       0.00000000 </v>
   <v>       0.00000000      -1.38359539       0.00000000 </v>
   <v>       0.00000000       0.00000000      -1.38359539 </v>
  </varray>
  <energy>
   <i name="e_fr_energy">    -25.88724390 </i>
   <i name="e_wo_entrp">    -25.88724390 </i>
   <i name="e_0_energy">      0.00000000 </i>
  </energy>
  <time name="totalsc">   30.29   30.57</time>
  <eigenvalues>
   <array>
    <dimension dim="1">band</dimension>
    <dimension dim="2">kpoint</dimension>
    <dimension dim="3">spin</dimension>
    <field>eigene</field>
    <field>occ</field>
    <set>
     <set comment="spin 1">
      <set comment="kpoint 1">
       <r>  -33.9564    1.0000 </r>
       <r>  -31.0904    1.0000 </r>
       <r>  -31.0904    1.0000 </r>
       <r>  -31.0904    1.0000 </r>
       <r>  -17.5798    1.0000 </r>
       <r>  -15.1334    1.0000 </r>
       <r>  -15.1334    1.0000 </r>
       <r>  -15.1334    1.0000 </r>
       <r>  -11.4674    1.0000 </r>
       <r>  -11.4674    1.0000 </r>
       <r>  -10.9781    1.0000 </r>
       <r>  -10.9781    1.0000 </r>
       <r>  -10.9781    1.0000 </r>
       <r>   -9.7594    1.0000 </r>
       <r>   -9.7594    1.0000 </r>
       <r>   -9.7594    1.0000 </r>
       <r>   -0.3479    0.0000 </r>
       <r>    1.9453    0.0000 </r>
       <r>    1.9453    0.0000 </r>
       <r>    1.9453    0.0000 </r>
      </set>
     </set>
    </set>
   </array>
  </eigenvalues>
  <separator name="orbital magnetization" >
   <v name="MAGDIPOLOUT">      0.00000000      0.00000000      0.00000000</v>
  </separator>
  <dos>
   <i name="efermi">     -8.81908088 </i>
   <total>
    <array>
     <dimension dim="1">gridpoints</dimension>
     <dimension dim="2">spin</dimension>
     <field>energy</field>
     <field>total</field>
     <field>integrated</field>
     <set>
      <set comment="spin 1">
       <r>   -35.9564     0.0000     0.0000 </r>
       <r>   -35.8234     0.0000     0.0000 </r>
       <r>   -35.6904     0.0000     0.0000 </r>
       <r>   -35.5574     0.0000     0.0000 </r>
       <r>   -35.4244     0.0000     0.0000 </r>
       <r>   -35.2914     0.0000     0.0000 </r>
       <r>   -35.1584     0.0000     0.0000 </r>
       <r>   -35.0254     0.0000     0.0000 </r>
       <r>   -34.8923     0.0000     0.0000 </r>
       <r>   -34.7593     0.0000     0.0000 </r>
       <r>   -34.6263     0.0000     0.0000 </r>
       <r>   -34.4933     0.0011     0.0001 </r>
       <r>   -34.3603     0.0311     0.0043 </r>
       <r>   -34.2273     0.3843     0.0554 </r>
       <r>   -34.0943     2.0604     0.3294 </r>
       <r>   -33.9613     4.8332     0.9723 </r>
       <r>   -33.8283     4.9821     1.6349 </r>
       <r>   -33.6953     2.2572     1.9351 </r>
       <r>   -33.5623     0.4476     1.9947 </r>
       <r>   -33.4293     0.0386     1.9998 </r>
       <r>   -33.2963     0.0014     2.0000 </r>
       <r>   -33.1633     0.0000     2.0000 </r>
       <r>   -33.0303     0.0000     2.0000 </r>
       <r>   -32.8973     0.0000     2.0000 </r>
       <r>   -32.7643     0.0000     2.0000 </r>
       <r>   -32.6313     0.0000     2.0000 </r>
       <r>   -32.4982     0.0000     2.0000 </r>
       <r>   -32.3652     0.0000     2.0000 </r>
       <r>   -32.2322     0.0000     2.0000 </r>
       <r>   -32.0992     0.0000     2.0000 </r>
       <r>   -31.9662     0.0000     2.0000 </r>
       <r>   -31.8332     0.0000     2.0000 </r>
       <r>   -31.7002     0.0004     2.0000 </r>
       <r>   -31.5672     0.0165     2.0022 </r>
       <r>   -31.4342     0.3225     2.0451 </r>
       <r>   -31.3012     2.7284     2.4080 </r>
       <r>   -31.1682    10.0616     3.7463 </r>
       <r>   -31.0352    16.2735     5.9107 </r>
       <r>   -30.9022    11.5735     7.4501 </r>
       <r>   -30.7692     3.6126     7.9306 </r>
       <r>   -30.6362     0.4921     7.9960 </r>
       <r>   -30.5032     0.0290     7.9999 </r>
       <r>   -30.3702     0.0007     8.0000 </r>
       <r>   -30.2371     0.0000     8.0000 </r>
       <r>   -30.1041     0.0000     8.0000 </r>
       <r>   -29.9711     0.0000     8.0000 </r>
       <r>   -29.8381     0.0000     8.0000 </r>
       <r>   -29.7051     0.0000     8.0000 </r>
       <r>   -29.5721     0.0000     8.0000 </r>
       <r>   -29.4391     0.0000     8.0000 </r>
       <r>   -29.3061     0.0000     8.0000 </r>
       <r>   -29.1731     0.0000     8.0000 </r>
       <r>   -29.0401     0.0000     8.0000 </r>
       <r>   -28.9071     0.0000     8.0000 </r>
       <r>   -28.7741     0.0000     8.0000 </r>
       <r>   -28.6411     0.0000     8.0000 </r>
       <r>   -28.5081     0.0000     8.0000 </r>
       <r>   -28.3751     0.0000     8.0000 </r>
       <r>   -28.2421     0.0000     8.0000 </r>
       <r>   -28.1091     0.0000     8.0000 </r>
       <r>   -27.9761     0.0000     8.0000 </r>
       <r>   -27.8430     0.0000     8.0000 </r>
       <r>   -27.7100     0.0000     8.0000 </r>
       <r>   -27.5770     0.0000     8.0000 </r>
       <r>   -27.4440     0.0000     8.0000 </r>
       <r>   -27.3110     0.0000     8.0000 </r>
       <r>   -27.1780     0.0000     8.0000 </r>
       <r>   -27.0450     0.0000     8.0000 </r>
       <r>   -26.9120     0.0000     8.0000 </r>
       <r>   -26.7790     0.0000     8.0000 </r>
       <r>   -26.6460     0.0000     8.0000 </r>
       <r>   -26.5130     0.0000     8.0000 </r>
       <r>   -26.3800     0.0000     8.0000 </r>
       <r>   -26.2470     0.0000     8.0000 </r>
       <r>   -26.1140     0.0000     8.0000 </r>
       <r>   -25.9810     0.0000     8.0000 </r>
       <r>   -25.8480     0.0000     8.0000 </r>
       <r>   -25.7150     0.0000     8.0000 </r>
       <r>   -25.5820     0.0000     8.0000 </r>
       <r>   -25.4489     0.0000     8.0000 </r>
       <r>   -25.3159     0.0000     8.0000 </r>
       <r>   -25.1829     0.0000     8.0000 </r>
       <r>   -25.0499     0.0000     8.0000 </r>
       <r>   -24.9169     0.0000     8.0000 </r>
       <r>   -24.7839     0.0000     8.0000 </r>
       <r>   -24.6509     0.0000     8.0000 </r>
       <r>   -24.5179     0.0000     8.0000 </r>
       <r>   -24.3849     0.0000     8.0000 </r>
       <r>   -24.2519     0.0000     8.0000 </r>
       <r>   -24.1189     0.0000     8.0000 </r>
       <r>   -23.9859     0.0000     8.0000 </r>
       <r>   -23.8529     0.0000     8.0000 </r>
       <r>   -23.7199     0.0000     8.0000 </r>
       <r>   -23.5869     0.0000     8.0000 </r>
       <r>   -23.4539     0.0000     8.0000 </r>
       <r>   -23.3209     0.0000     8.0000 </r>
       <r>   -23.1878     0.0000     8.0000 </r>
       <r>   -23.0548     0.0000     8.0000 </r>
       <r>   -22.9218     0.0000     8.0000 </r>
       <r>   -22.7888     0.0000     8.0000 </r>
       <r>   -22.6558     0.0000     8.0000 </r>
       <r>   -22.5228     0.0000     8.0000 </r>
       <r>   -22.3898     0.0000     8.0000 </r>
       <r>   -22.2568     0.0000     8.0000 </r>
       <r>   -22.1238     0.0000     8.0000 </r>
       <r>   -21.9908     0.0000     8.0000 </r>
       <r>   -21.8578     0.0000     8.0000 </r>
       <r>   -21.7248     0.0000     8.0000 </r>
       <r>   -21.5918     0.0000     8.0000 </r>
       <r>   -21.4588     0.0000     8.0000 </r>
       <r>   -21.3258     0.0000     8.0000 </r>
       <r>   -21.1928     0.0000     8.0000 </r>
       <r>   -21.0598     0.0000     8.0000 </r>
       <r>   -20.9268     0.0000     8.0000 </r>
       <r>   -20.7937     0.0000     8.0000 </r>
       <r>   -20.6607     0.0000     8.0000 </r>
       <r>   -20.5277     0.0000     8.0000 </r>
       <r>   -20.3947     0.0000     8.0000 </r>
       <r>   -20.2617     0.0000     8.0000 </r>
       <r>   -20.1287     0.0000     8.0000 </r>
       <r>   -19.9957     0.0000     8.0000 </r>
       <r>   -19.8627     0.0000     8.0000 </r>
       <r>   -19.7297     0.0000     8.0000 </r>
       <r>   -19.5967     0.0000     8.0000 </r>
       <r>   -19.4637     0.0000     8.0000 </r>
       <r>   -19.3307     0.0000     8.0000 </r>
       <r>   -19.1977     0.0000     8.0000 </r>
       <r>   -19.0647     0.0000     8.0000 </r>
       <r>   -18.9317     0.0000     8.0000 </r>
       <r>   -18.7987     0.0000     8.0000 </r>
       <r>   -18.6657     0.0000     8.0000 </r>
       <r>   -18.5327     0.0000     8.0000 </r>
       <r>   -18.3996     0.0000     8.0000 </r>
       <r>   -18.2666     0.0000     8.0000 </r>
       <r>   -18.1336     0.0007     8.0001 </r>
       <r>   -18.0006     0.0213     8.0029 </r>
       <r>   -17.8676     0.2924     8.0418 </r>
       <r>   -17.7346     1.7426     8.2736 </r>
       <r>   -17.6016     4.5393     8.8774 </r>
       <r>   -17.4686     5.1943     9.5682 </r>
       <r>   -17.3356     2.6130     9.9158 </r>
       <r>   -17.2026     0.5758     9.9924 </r>
       <r>   -17.0696     0.0552     9.9997 </r>
       <r>   -16.9366     0.0023    10.0000 </r>
       <r>   -16.8036     0.0000    10.0000 </r>
       <r>   -16.6706     0.0000    10.0000 </r>
       <r>   -16.5376     0.0000    10.0000 </r>
       <r>   -16.4046     0.0000    10.0000 </r>
       <r>   -16.2716     0.0000    10.0000 </r>
       <r>   -16.1385     0.0000    10.0000 </r>
       <r>   -16.0055     0.0000    10.0000 </r>
       <r>   -15.8725     0.0000    10.0000 </r>
       <r>   -15.7395     0.0004    10.0001 </r>
       <r>   -15.6065     0.0181    10.0025 </r>
       <r>   -15.4735     0.3463    10.0485 </r>
       <r>   -15.3405     2.8621    10.4292 </r>
       <r>   -15.2075    10.3130    11.8009 </r>
       <r>   -15.0745    16.3002    13.9689 </r>
       <r>   -14.9415    11.3286    15.4757 </r>
       <r>   -14.8085     3.4553    15.9352 </r>
       <r>   -14.6755     0.4598    15.9964 </r>
       <r>   -14.5425     0.0265    15.9999 </r>
       <r>   -14.4095     0.0007    16.0000 </r>
       <r>   -14.2765     0.0000    16.0000 </r>
       <r>   -14.1435     0.0000    16.0000 </r>
       <r>   -14.0105     0.0000    16.0000 </r>
       <r>   -13.8775     0.0000    16.0000 </r>
       <r>   -13.7444     0.0000    16.0000 </r>
       <r>   -13.6114     0.0000    16.0000 </r>
       <r>   -13.4784     0.0000    16.0000 </r>
       <r>   -13.3454     0.0000    16.0000 </r>
       <r>   -13.2124     0.0000    16.0000 </r>
       <r>   -13.0794     0.0000    16.0000 </r>
       <r>   -12.9464     0.0000    16.0000 </r>
       <r>   -12.8134     0.0000    16.0000 </r>
       <r>   -12.6804     0.0000    16.0000 </r>
       <r>   -12.5474     0.0000    16.0000 </r>
       <r>   -12.4144     0.0000    16.0000 </r>
       <r>   -12.2814     0.0000    16.0000 </r>
       <r>   -12.1484     0.0000    16.0000 </r>
       <r>   -12.0154     0.0016    16.0002 </r>
       <r>   -11.8824     0.0487    16.0067 </r>
       <r>   -11.7494     0.6440    16.0923 </r>
       <r>   -11.6164     3.6995    16.5844 </r>
       <r>   -11.4834     9.3002    17.8214 </r>
       <r>   -11.3503    10.4383    19.2097 </r>
       <r>   -11.2173     6.8297    20.1181 </r>
       <r>   -11.0843     9.2191    21.3443 </r>
       <r>   -10.9513    15.8329    23.4502 </r>
       <r>   -10.8183    13.3399    25.2244 </r>
       <r>   -10.6853     4.9646    25.8848 </r>
       <r>   -10.5523     0.8077    25.9922 </r>
       <r>   -10.4193     0.0571    25.9998 </r>
       <r>   -10.2863     0.0060    26.0006 </r>
       <r>   -10.1533     0.1162    26.0160 </r>
       <r>   -10.0203     1.3464    26.1951 </r>
       <r>    -9.8873     6.7821    27.0972 </r>
       <r>    -9.7543    14.9537    29.0861 </r>
       <r>    -9.6213    14.4911    31.0135 </r>
       <r>    -9.4883     6.1709    31.8343 </r>
       <r>    -9.3553     1.1497    31.9872 </r>
       <r>    -9.2223     0.0930    31.9996 </r>
       <r>    -9.0892     0.0032    32.0000 </r>
       <r>    -8.9562     0.0000    32.0000 </r>
       <r>    -8.8232     0.0000    32.0000 </r>
       <r>    -8.6902     0.0000    32.0000 </r>
       <r>    -8.5572     0.0000    32.0000 </r>
       <r>    -8.4242     0.0000    32.0000 </r>
       <r>    -8.2912     0.0000    32.0000 </r>
       <r>    -8.1582     0.0000    32.0000 </r>
       <r>    -8.0252     0.0000    32.0000 </r>
       <r>    -7.8922     0.0000    32.0000 </r>
       <r>    -7.7592     0.0000    32.0000 </r>
       <r>    -7.6262     0.0000    32.0000 </r>
       <r>    -7.4932     0.0000    32.0000 </r>
       <r>    -7.3602     0.0000    32.0000 </r>
       <r>    -7.2272     0.0000    32.0000 </r>
       <r>    -7.0942     0.0000    32.0000 </r>
       <r>    -6.9612     0.0000    32.0000 </r>
       <r>    -6.8282     0.0000    32.0000 </r>
       <r>    -6.6951     0.0000    32.0000 </r>
       <r>    -6.5621     0.0000    32.0000 </r>
       <r>    -6.4291     0.0000    32.0000 </r>
       <r>    -6.2961     0.0000    32.0000 </r>
       <r>    -6.1631     0.0000    32.0000 </r>
       <r>    -6.0301     0.0000    32.0000 </r>
       <r>    -5.8971     0.0000    32.0000 </r>
       <r>    -5.7641     0.0000    32.0000 </r>
       <r>    -5.6311     0.0000    32.0000 </r>
       <r>    -5.4981     0.0000    32.0000 </r>
       <r>    -5.3651     0.0000    32.0000 </r>
       <r>    -5.2321     0.0000    32.0000 </r>
       <r>    -5.0991     0.0000    32.0000 </r>
       <r>    -4.9661     0.0000    32.0000 </r>
       <r>    -4.8331     0.0000    32.0000 </r>
       <r>    -4.7001     0.0000    32.0000 </r>
       <r>    -4.5671     0.0000    32.0000 </r>
       <r>    -4.4341     0.0000    32.0000 </r>
       <r>    -4.3010     0.0000    32.0000 </r>
       <r>    -4.1680     0.0000    32.0000 </r>
       <r>    -4.0350     0.0000    32.0000 </r>
       <r>    -3.9020     0.0000    32.0000 </r>
       <r>    -3.7690     0.0000    32.0000 </r>
       <r>    -3.6360     0.0000    32.0000 </r>
       <r>    -3.5030     0.0000    32.0000 </r>
       <r>    -3.3700     0.0000    32.0000 </r>
       <r>    -3.2370     0.0000    32.0000 </r>
       <r>    -3.1040     0.0000    32.0000 </r>
       <r>    -2.9710     0.0000    32.0000 </r>
       <r>    -2.8380     0.0000    32.0000 </r>
       <r>    -2.7050     0.0000    32.0000 </r>
       <r>    -2.5720     0.0000    32.0000 </r>
       <r>    -2.4390     0.0000    32.0000 </r>
       <r>    -2.3060     0.0000    32.0000 </r>
       <r>    -2.1730     0.0000    32.0000 </r>
       <r>    -2.0399     0.0000    32.0000 </r>
       <r>    -1.9069     0.0000    32.0000 </r>
       <r>    -1.7739     0.0000    32.0000 </r>
       <r>    -1.6409     0.0000    32.0000 </r>
       <r>    -1.5079     0.0000    32.0000 </r>
       <r>    -1.3749     0.0000    32.0000 </r>
       <r>    -1.2419     0.0000    32.0000 </r>
       <r>    -1.1089     0.0000    32.0000 </r>
       <r>    -0.9759     0.0001    32.0000 </r>
       <r>    -0.8429     0.0034    32.0005 </r>
       <r>    -0.7099     0.0753    32.0105 </r>
       <r>    -0.5769     0.7138    32.1054 </r>
       <r>    -0.4439     2.9467    32.4973 </r>
       <r>    -0.3109     5.3321    33.2065 </r>
       <r>    -0.1779     4.2421    33.7708 </r>
       <r>    -0.0449     1.4820    33.9679 </r>
       <r>     0.0881     0.2262    33.9980 </r>
       <r>     0.2211     0.0150    33.9999 </r>
       <r>     0.3542     0.0004    34.0000 </r>
       <r>     0.4872     0.0000    34.0000 </r>
       <r>     0.6202     0.0000    34.0000 </r>
       <r>     0.7532     0.0000    34.0000 </r>
       <r>     0.8862     0.0000    34.0000 </r>
       <r>     1.0192     0.0000    34.0000 </r>
       <r>     1.1522     0.0000    34.0000 </r>
       <r>     1.2852     0.0001    34.0000 </r>
       <r>     1.4182     0.0043    34.0006 </r>
       <r>     1.5512     0.1157    34.0160 </r>
       <r>     1.6842     1.3428    34.1946 </r>
       <r>     1.8172     6.7715    35.0952 </r>
       <r>     1.9502    14.9464    37.0832 </r>
       <r>     2.0832    14.4995    39.0117 </r>
       <r>     2.2162     6.1811    39.8338 </r>
       <r>     2.3492     1.1528    39.9871 </r>
       <r>     2.4822     0.0934    39.9996 </r>
       <r>     2.6152     0.0033    40.0000 </r>
       <r>     2.7483     0.0000    40.0000 </r>
       <r>     2.8813     0.0000    40.0000 </r>
       <r>     3.0143     0.0000    40.0000 </r>
       <r>     3.1473     0.0000    40.0000 </r>
       <r>     3.2803     0.0000    40.0000 </r>
       <r>     3.4133     0.0000    40.0000 </r>
       <r>     3.5463     0.0000    40.0000 </r>
       <r>     3.6793     0.0000    40.0000 </r>
       <r>     3.8123     0.0000    40.0000 </r>
       <r>     3.9453     0.0000    40.0000 </r>
      </set>
     </set>
    </array>
   </total>
  </dos>
 </calculation>
 <structure name="finalpos" >
  <crystal>
   <varray name="basis" >
    <v>       8.00000000       0.00000000       0.00000000 </v>
    <v>       0.00000000       8.00000000       0.00000000 </v>
    <v>       0.00000000       0.00000000       8.00000000 </v>
   </varray>
   <i name="volume">    512.00000000 </i>
   <varray name="rec_basis" >
    <v>       0.12500000       0.00000000       0.00000000 </v>
    <v>       0.00000000       0.12500000       0.00000000 </v>
    <v>       0.00000000       0.00000000       0.12500000 </v>
   </varray>
  </crystal>
  <varray name="positions" >
   <v>       0.00000000       0.00000000       0.00000000 </v>
   <v>       0.09704934       0.09704934       0.09704934 </v>
   <v>       0.90295066       0.90295066       0.09704934 </v>
   <v>       0.90295066       0.09704934       0.90295066 </v>
   <v>       0.09704934       0.90295066       0.90295066 </v>
  </varray>
 </structure>
</modeling>
