 running on    1 nodes
 distr:  one band on    1 nodes,    1 groups
 vasp.5.2.12 11Nov11 complex                                                    
  
 POSCAR found :  2 types and       5 ions
 LDA part: xc-table for Pade appr. of Perdew
 POSCAR, INCAR and KPOINTS ok, starting setup
 WARNING: small aliasing (wrap around) errors must be expected
 FFT: planning ...(           2 )
 WAVECAR not read
 entering main loop
       N       E                     dE             d eps       ncg     rms          rms(c)
DAV:   1     0.275795166936E+03    0.27580E+03   -0.89607E+03    56   0.650E+02
DAV:   2     0.140136241735E+02   -0.26178E+03   -0.25589E+03    64   0.227E+02
DAV:   3    -0.271736016457E+02   -0.41187E+02   -0.41121E+02    40   0.108E+02
DAV:   4    -0.277387064457E+02   -0.56510E+00   -0.56489E+00    48   0.133E+01
DAV:   5    -0.277531566750E+02   -0.14450E-01   -0.14437E-01    48   0.191E+00    0.106E+01
DAV:   6    -0.264824891210E+02    0.12707E+01   -0.16608E+00    48   0.104E+01    0.603E+00
DAV:   7    -0.265695957895E+02   -0.87107E-01   -0.11228E+00    48   0.891E+00    0.115E+00
DAV:   8    -0.265753850390E+02   -0.57892E-02   -0.13094E-01    44   0.252E+00    0.211E-01
DAV:   9    -0.265764279582E+02   -0.10429E-02   -0.43111E-03    48   0.480E-01    0.772E-02
DAV:  10    -0.265768947221E+02   -0.46676E-03   -0.29252E-04    32   0.121E-01    0.255E-02
DAV:  11    -0.265770407579E+02   -0.14604E-03   -0.87415E-05    28   0.740E-02    0.833E-03
DAV:  12    -0.265770911562E+02   -0.50398E-04   -0.20927E-05    24   0.374E-02
   1 F= -.26577091E+02 E0= -.26577091E+02  d E =-.265771E+02
 curvature:   0.00 expect dE= 0.000E+00 dE for cont linesearch  0.000E+00
 trial: gam= 0.00000 g(F)=  0.113E-01 g(S)=  0.000E+00 ort = 0.000E+00 (trialstep = 0.100E+01)
 search vector abs. value=  0.113E-01
 bond charge predicted
       N       E                     dE             d eps       ncg     rms          rms(c)
DAV:   1    -0.265704168081E+02    0.66239E-02   -0.40674E+00    48   0.177E+01    0.598E-01
DAV:   2    -0.265736587264E+02   -0.32419E-02   -0.75846E-02    40   0.206E+00    0.210E-01
DAV:   3    -0.265750651418E+02   -0.14064E-02   -0.14928E-03    48   0.298E-01    0.918E-02
DAV:   4    -0.265758604754E+02   -0.79533E-03   -0.63105E-04    36   0.174E-01    0.243E-02
DAV:   5    -0.265759141840E+02   -0.53709E-04   -0.12356E-04    24   0.761E-02
   2 F= -.26575914E+02 E0= -.26575914E+02  d E =0.117697E-02
 trial-energy change:    0.001177  1 .order    0.001459   -0.011270    0.014187
 step:   0.4427(harm=  0.4427)  dis= 0.00298  next Energy=   -26.579586 (dE=-0.249E-02)
 bond charge predicted
       N       E                     dE             d eps       ncg     rms          rms(c)
DAV:   1    -0.265780349588E+02   -0.21745E-02   -0.12623E+00    48   0.984E+00    0.342E-01
DAV:   2    -0.265790863143E+02   -0.10514E-02   -0.24976E-02    44   0.119E+00    0.116E-01
DAV:   3    -0.265794547917E+02   -0.36848E-03   -0.42294E-04    48   0.161E-01    0.536E-02
DAV:   4    -0.265797288284E+02   -0.27404E-03   -0.22554E-04    40   0.103E-01    0.143E-02
DAV:   5    -0.265797428950E+02   -0.14067E-04   -0.48218E-05    24   0.471E-02
   3 F= -.26579743E+02 E0= -.26579743E+02  d E =-.265174E-02
 curvature:  -0.22 expect dE=-0.182E-05 dE for cont linesearch -0.182E-05
 trial: gam=-0.02632 g(F)=  0.824E-05 g(S)=  0.000E+00 ort = 0.305E-03 (trialstep = 0.889E+00)
 search vector abs. value=  0.613E-08
 reached required accuracy - stopping structural energy minimisation
 writing wavefunctions
NPROCS =  1
