unknown system                          
   1.00000000000000     
     8.000000    0.000000    0.000000
     0.000000    8.000000    0.000000
     0.000000    0.000000    8.000000
   C    F 
     1     4
Direct
  0.000000  0.000000  0.000000
  0.095929  0.095929  0.095929
  0.904071  0.904071  0.095929
  0.904071  0.095929  0.904071
  0.095929  0.904071  0.904071
 
   64   64   64
  580.31      612.45      671.89      686.01      616.95      487.57      347.68      235.06      160.06      113.24    
  83.624      63.413      47.234      32.973      21.323      12.848      6.8766      3.0879      1.7574      2.0281    
  2.0129      1.0960     0.37115     0.42124     0.42495     -.72618E-01 -.29261     0.16203     0.43520     0.11186E-02
 -.34106     0.20413E-01 0.36261     0.20413E-01 -.34106     0.11186E-02 0.43520     0.16203     -.29261     -.72618E-01
 0.42495     0.42124     0.37115      1.0960      2.0129      2.0281      1.7574      3.0879      6.8766      12.848    
  21.323      32.973      47.234      63.413      83.624      113.24      160.06      235.06      347.68      487.57    
  616.95      686.01      671.89      612.45      612.45      639.78      688.69      694.32      623.05      495.83    
  358.21      245.97      169.17      119.52      87.152      64.970      47.882      33.509      21.955      13.420    
  7.2731      3.3298      1.8621      2.0033      1.9402      1.0703     0.38278     0.40763     0.39773     -.59738E-01
 -.25940     0.15412     0.40070     0.46414E-02 -.30672     0.21568E-01 0.33235     0.21568E-01 -.30672     0.46414E-02
 0.40070     0.15412     -.25940     -.59738E-01 0.39773     0.40763     0.38278      1.0703      1.9402      2.0033    
  1.8621      3.3298      7.2731      13.420      21.955      33.509      47.882      64.970      87.152      119.52    
  169.17      245.97      358.21      495.83      623.05      694.32      688.69      639.78      671.89      688.69    
  715.26      704.85      633.19      515.70      387.17      277.80      196.70      138.96      98.343      70.153    
  50.171      35.202      23.712      14.933      8.3305      3.9969      2.1542      1.9336      1.7472      1.0151    
 0.42507     0.37048     0.31959     -.26414E-01 -.16886     0.13267     0.30630     0.12757E-01 -.21532     0.23388E-01
 0.24933     0.23388E-01 -.21532     0.12757E-01 0.30630     0.13267     -.16886     -.26414E-01 0.31959     0.37048    
 0.42507      1.0151      1.7472      1.9336      2.1542      3.9969      8.3305      14.933      23.712      35.202    
  50.171      70.153      98.343      138.96      196.70      277.80      387.17      515.70      633.19      704.85    
  715.26      688.69      686.01      694.32      704.85      688.84      629.93      535.26      427.08      326.43    
  240.96      171.24      117.49      79.504      54.526      38.032      26.163      16.888      9.7132      4.9140    
  2.5595      1.8355      1.5011     0.97298     0.50322     0.32146     0.20944     0.16294E-01 -.48123E-01 0.10345    
 0.18003     0.22283E-01 -.96579E-01 0.22786E-01 0.13641     0.22786E-01 -.96579E-01 0.22283E-01 0.18003     0.10345    
 -.48123E-01 0.16294E-01 0.20944     0.32146     0.50322     0.97298      1.5011      1.8355      2.5595      4.9140    
  9.7132      16.888      26.163      38.032      54.526      79.504      117.49      171.24      240.96      326.43    
  427.08      535.26      629.93      688.84      704.85      694.32      616.95      623.05      633.19      629.93    
  600.01      542.31      466.34      381.32      293.69      210.78      141.48      91.647      60.326      41.418    
  28.639      18.707      11.020      5.8151      2.9518      1.7346      1.2817     0.96300     0.59515     0.27878    
 0.10755     0.57801E-01 0.62429E-01 0.74015E-01 0.64507E-01 0.33485E-01 0.12227E-01 0.18724E-01 0.28156E-01 0.18724E-01
 0.12227E-01 0.33485E-01 0.64507E-01 0.74015E-01 0.62429E-01 0.57801E-01 0.10755     0.27878     0.59515     0.96300    
  1.2817      1.7346      2.9518      5.8151      11.020      18.707      28.639      41.418      60.326      91.647    
  141.48      210.78      293.69      381.32      466.34      542.31      600.01      629.93      633.19      623.05    
  487.57      495.83      515.70      535.26      542.31      528.80      489.97      424.58      338.24      245.06    
  162.60      102.56      65.563      44.218      30.424      19.937      11.910      6.4199      3.1881      1.6490    
  1.1420     0.96549     0.65779     0.25920     0.55080E-01 0.86827E-01 0.12437     0.52770E-01 -.92379E-03 0.45348E-01
 0.77534E-01 0.13395E-01 -.39713E-01 0.13395E-01 0.77534E-01 0.45348E-01 -.92379E-03 0.52770E-01 0.12437     0.86827E-01
 0.55080E-01 0.25920     0.65779     0.96549      1.1420      1.6490      3.1881      6.4199      11.910      19.937    
  30.424      44.218      65.563      102.56      162.60      245.06      338.24      424.58      489.97      528.80    
  542.31      535.26      515.70      495.83      347.68      358.21      387.17      427.08      466.34      489.97    
  482.71      436.03      355.18      259.23      171.53      107.24      67.794      45.284      31.002      20.324    
  12.175      6.5413      3.1740      1.5729      1.0820     0.94621     0.66142     0.26727     0.62746E-01 0.91420E-01
 0.12180     0.45800E-01 -.32022E-02 0.50789E-01 0.82582E-01 0.98447E-02 -.48522E-01 0.98447E-02 0.82582E-01 0.50789E-01
 -.32022E-02 0.45800E-01 0.12180     0.91420E-01 0.62746E-01 0.26727     0.66142     0.94621      1.0820      1.5729    
  3.1740      6.5413      12.175      20.324      31.002      45.284      67.794      107.24      171.53      259.23    
  355.18      436.03      482.71      489.97      466.34      427.08      387.17      358.21      235.06      245.97    
  277.80      326.43      381.32      424.58      436.03      403.85      333.20      244.76      162.93      102.78    
  65.593      44.035      30.184      19.773      11.741      6.1529      2.9107      1.4827      1.0602     0.89028    
 0.61268     0.29142     0.10492     0.69018E-01 0.71534E-01 0.51658E-01 0.36838E-01 0.43536E-01 0.39237E-01 0.90540E-02
 -.10363E-01 0.90540E-02 0.39237E-01 0.43536E-01 0.36838E-01 0.51658E-01 0.71534E-01 0.69018E-01 0.10492     0.29142    
 0.61268     0.89028      1.0602      1.4827      2.9107      6.1529      11.741      19.773      30.184      44.035    
  65.593      102.78      162.93      244.76      333.20      403.85      436.03      424.58      381.32      326.43    
  277.80      245.97      160.06      169.17      196.70      240.96      293.69      338.24      355.18      333.20    
  277.12      205.49      139.13      90.183      59.309      40.629      28.047      18.303      10.658      5.3740    
  2.4872      1.3645      1.0337     0.81260     0.54429     0.31177     0.14428     0.34332E-01 0.11900E-01 0.61049E-01
 0.81387E-01 0.28394E-01 -.15592E-01 0.98559E-02 0.38785E-01 0.98559E-02 -.15592E-01 0.28394E-01 0.81387E-01 0.61049E-01
 0.11900E-01 0.34332E-01 0.14428     0.31177     0.54429     0.81260      1.0337      1.3645      2.4872      5.3740    
  10.658      18.303      28.047      40.629      59.309      90.183      139.13      205.49      277.12      333.20    
  355.18      338.24      293.69      240.96      196.70      169.17      113.24      119.52      138.96      171.24    
  210.78      245.06      259.23      244.76      205.49      155.11      108.40      73.520      50.625      35.704    
  24.827      16.026      9.0723      4.3940      2.0275      1.2312     0.98841     0.74173     0.48739     0.31206    
 0.15691     0.90026E-02 -.22625E-01 0.64686E-01 0.10216     0.17921E-01 -.44728E-01 0.10955E-01 0.65143E-01 0.10955E-01
 -.44728E-01 0.17921E-01 0.10216     0.64686E-01 -.22625E-01 0.90026E-02 0.15691     0.31206     0.48739     0.74173    
 0.98841      1.2312      2.0275      4.3940      9.0723      16.026      24.827      35.704      50.625      73.520    
  108.40      155.11      205.49      244.76      259.23      245.06      210.78      171.24      138.96      119.52    
  83.624      87.152      98.343      117.49      141.48      162.60      171.53      162.93      139.13      108.40    
  79.518      57.181      41.429      29.999      20.840      13.165      7.2053      3.3973      1.6299      1.1100    
 0.93424     0.69528     0.45183     0.28564     0.13769     0.25875E-02 -.20913E-01 0.60869E-01 0.93893E-01 0.18330E-01
 -.37003E-01 0.11741E-01 0.59040E-01 0.11741E-01 -.37003E-01 0.18330E-01 0.93893E-01 0.60869E-01 -.20913E-01 0.25875E-02
 0.13769     0.28564     0.45183     0.69528     0.93424      1.1100      1.6299      3.3973      7.2053      13.165    
  20.840      29.999      41.429      57.181      79.518      108.40      139.13      162.93      171.53      162.60    
  141.48      117.49      98.343      87.152      63.413      64.970      70.153      79.504      91.647      102.56    
  107.24      102.78      90.183      73.520      57.181      43.588      32.871      24.069      16.456      10.053    
  5.3202      2.5203      1.3356      1.0159     0.88075     0.66520     0.42342     0.23437     0.95274E-01 0.87196E-02
 0.46885E-02 0.53788E-01 0.68509E-01 0.24154E-01 -.91170E-02 0.11450E-01 0.33569E-01 0.11450E-01 -.91170E-02 0.24154E-01
 0.68509E-01 0.53788E-01 0.46885E-02 0.87196E-02 0.95274E-01 0.23437     0.42342     0.66520     0.88075      1.0159    
  1.3356      2.5203      5.3202      10.053      16.456      24.069      32.871      43.588      57.181      73.520    
  90.183      102.78      107.24      102.56      91.647      79.504      70.153      64.970      47.234      47.882    
  50.171      54.526      60.326      65.563      67.794      65.593      59.309      50.625      41.429      32.871    
  25.195      18.247      12.074      7.0768      3.6641      1.8369      1.1344     0.94120     0.82143     0.62238    
 0.37656     0.16721     0.48333E-01 0.18323E-01 0.33292E-01 0.46827E-01 0.41889E-01 0.27537E-01 0.15701E-01 0.95414E-02
 0.77338E-02 0.95414E-02 0.15701E-01 0.27537E-01 0.41889E-01 0.46827E-01 0.33292E-01 0.18323E-01 0.48333E-01 0.16721    
 0.37656     0.62238     0.82143     0.94120      1.1344      1.8369      3.6641      7.0768      12.074      18.247    
  25.195      32.871      41.429      50.625      59.309      65.593      67.794      65.563      60.326      54.526    
  50.171      47.882      32.973      33.509      35.202      38.032      41.418      44.218      45.284      44.035    
  40.629      35.704      29.999      24.069      18.247      12.803      8.1079      4.5776      2.3976      1.3578    
 0.99183     0.86640     0.73959     0.53895     0.29644     0.99869E-01 0.17727E-01 0.28657E-01 0.50690E-01 0.41009E-01
 0.25124E-01 0.26923E-01 0.26551E-01 0.76342E-02 -.57476E-02 0.76342E-02 0.26551E-01 0.26923E-01 0.25124E-01 0.41009E-01
 0.50690E-01 0.28657E-01 0.17727E-01 0.99869E-01 0.29644     0.53895     0.73959     0.86640     0.99183      1.3578    
  2.3976      4.5776      8.1079      12.803      18.247      24.069      29.999      35.704      40.629      44.035    
  45.284      44.218      41.418      38.032      35.202      33.509      21.323      21.955      23.712      26.163    
  28.639      30.424      31.002      30.184      28.047      24.827      20.840      16.456      12.074      8.1079    
  4.9287      2.7571      1.5555      1.0468     0.87497     0.77432     0.62402     0.41261     0.19504     0.49601E-01
 0.12258E-01 0.38770E-01 0.54744E-01 0.37876E-01 0.21334E-01 0.24590E-01 0.25609E-01 0.91157E-02 -.27383E-02 0.91157E-02
 0.25609E-01 0.24590E-01 0.21334E-01 0.37876E-01 0.54744E-01 0.38770E-01 0.12258E-01 0.49601E-01 0.19504     0.41261    
 0.62402     0.77432     0.87497      1.0468      1.5555      2.7571      4.9287      8.1079      12.074      16.456    
  20.840      24.827      28.047      30.184      31.002      30.424      28.639      26.163      23.712      21.955    
  12.848      13.420      14.933      16.888      18.707      19.937      20.324      19.773      18.303      16.026    
  13.165      10.053      7.0768      4.5776      2.7571      1.6336      1.0705     0.85084     0.76131     0.65455    
 0.47930     0.27106     0.10350     0.24715E-01 0.22544E-01 0.45117E-01 0.51344E-01 0.38538E-01 0.25467E-01 0.21366E-01
 0.19685E-01 0.14964E-01 0.11895E-01 0.14964E-01 0.19685E-01 0.21366E-01 0.25467E-01 0.38538E-01 0.51344E-01 0.45117E-01
 0.22544E-01 0.24715E-01 0.10350     0.27106     0.47930     0.65455     0.76131     0.85084      1.0705      1.6336    
  2.7571      4.5776      7.0768      10.053      13.165      16.026      18.303      19.773      20.324      19.937    
  18.707      16.888      14.933      13.420      6.8766      7.2731      8.3305      9.7132      11.020      11.910    
  12.175      11.741      10.658      9.0723      7.2053      5.3202      3.6641      2.3976      1.5555      1.0705    
 0.83071     0.72080     0.63644     0.50660     0.32586     0.15144     0.45880E-01 0.19423E-01 0.32959E-01 0.46195E-01
 0.46943E-01 0.39666E-01 0.28338E-01 0.17610E-01 0.15033E-01 0.21098E-01 0.25458E-01 0.21098E-01 0.15033E-01 0.17610E-01
 0.28338E-01 0.39666E-01 0.46943E-01 0.46195E-01 0.32959E-01 0.19423E-01 0.45880E-01 0.15144     0.32586     0.50660    
 0.63644     0.72080     0.83071      1.0705      1.5555      2.3976      3.6641      5.3202      7.2053      9.0723    
  10.658      11.741      12.175      11.910      11.020      9.7132      8.3305      7.2731      3.0879      3.3298    
  3.9969      4.9140      5.8151      6.4199      6.5413      6.1529      5.3740      4.3940      3.3973      2.5203    
  1.8369      1.3578      1.0468     0.85084     0.72080     0.61411     0.49423     0.34606     0.19142     0.74592E-01
 0.22404E-01 0.21559E-01 0.37093E-01 0.45357E-01 0.43408E-01 0.35534E-01 0.24494E-01 0.15319E-01 0.14865E-01 0.22156E-01
 0.26771E-01 0.22156E-01 0.14865E-01 0.15319E-01 0.24494E-01 0.35534E-01 0.43408E-01 0.45357E-01 0.37093E-01 0.21559E-01
 0.22404E-01 0.74592E-01 0.19142     0.34606     0.49423     0.61411     0.72080     0.85084      1.0468      1.3578    
  1.8369      2.5203      3.3973      4.3940      5.3740      6.1529      6.5413      6.4199      5.8151      4.9140    
  3.9969      3.3298      1.7574      1.8621      2.1542      2.5595      2.9518      3.1881      3.1740      2.9107    
  2.4872      2.0275      1.6299      1.3356      1.1344     0.99183     0.87497     0.76131     0.63644     0.49423    
 0.34247     0.20255     0.97479E-01 0.37873E-01 0.18502E-01 0.24376E-01 0.37847E-01 0.44312E-01 0.38280E-01 0.25638E-01
 0.16597E-01 0.15076E-01 0.16902E-01 0.17585E-01 0.17379E-01 0.17585E-01 0.16902E-01 0.15076E-01 0.16597E-01 0.25638E-01
 0.38280E-01 0.44312E-01 0.37847E-01 0.24376E-01 0.18502E-01 0.37873E-01 0.97479E-01 0.20255     0.34247     0.49423    
 0.63644     0.76131     0.87497     0.99183      1.1344      1.3356      1.6299      2.0275      2.4872      2.9107    
  3.1740      3.1881      2.9518      2.5595      2.1542      1.8621      2.0281      2.0033      1.9336      1.8355    
  1.7346      1.6490      1.5729      1.4827      1.3645      1.2312      1.1100      1.0159     0.94120     0.86640    
 0.77432     0.65455     0.50660     0.34606     0.20255     0.10188     0.48260E-01 0.27042E-01 0.22742E-01 0.28088E-01
 0.36892E-01 0.39046E-01 0.29455E-01 0.16077E-01 0.10740E-01 0.13859E-01 0.15686E-01 0.11830E-01 0.88055E-02 0.11830E-01
 0.15686E-01 0.13859E-01 0.10740E-01 0.16077E-01 0.29455E-01 0.39046E-01 0.36892E-01 0.28088E-01 0.22742E-01 0.27042E-01
 0.48260E-01 0.10188     0.20255     0.34606     0.50660     0.65455     0.77432     0.86640     0.94120      1.0159    
  1.1100      1.2312      1.3645      1.4827      1.5729      1.6490      1.7346      1.8355      1.9336      2.0033    
  2.0129      1.9402      1.7472      1.5011      1.2817      1.1420      1.0820      1.0602      1.0337     0.98841    
 0.93424     0.88075     0.82143     0.73959     0.62402     0.47930     0.32586     0.19142     0.97479E-01 0.48260E-01
 0.31274E-01 0.29049E-01 0.30497E-01 0.31991E-01 0.31678E-01 0.27220E-01 0.19027E-01 0.11590E-01 0.88935E-02 0.98193E-02
 0.10195E-01 0.85510E-02 0.73769E-02 0.85510E-02 0.10195E-01 0.98193E-02 0.88935E-02 0.11590E-01 0.19027E-01 0.27220E-01
 0.31678E-01 0.31991E-01 0.30497E-01 0.29049E-01 0.31274E-01 0.48260E-01 0.97479E-01 0.19142     0.32586     0.47930    
 0.62402     0.73959     0.82143     0.88075     0.93424     0.98841      1.0337      1.0602      1.0820      1.1420    
  1.2817      1.5011      1.7472      1.9402      1.0960      1.0703      1.0151     0.97298     0.96300     0.96549    
 0.94621     0.89028     0.81260     0.74173     0.69528     0.66520     0.62238     0.53895     0.41261     0.27106    
 0.15144     0.74592E-01 0.37873E-01 0.27042E-01 0.29049E-01 0.34586E-01 0.36416E-01 0.31275E-01 0.22137E-01 0.14806E-01
 0.11694E-01 0.10517E-01 0.86534E-02 0.65343E-02 0.60370E-02 0.71888E-02 0.79858E-02 0.71888E-02 0.60370E-02 0.65343E-02
 0.86534E-02 0.10517E-01 0.11694E-01 0.14806E-01 0.22137E-01 0.31275E-01 0.36416E-01 0.34586E-01 0.29049E-01 0.27042E-01
 0.37873E-01 0.74592E-01 0.15144     0.27106     0.41261     0.53895     0.62238     0.66520     0.69528     0.74173    
 0.81260     0.89028     0.94621     0.96549     0.96300     0.97298      1.0151      1.0703     0.37115     0.38278    
 0.42507     0.50322     0.59515     0.65779     0.66142     0.61268     0.54429     0.48739     0.45183     0.42342    
 0.37656     0.29644     0.19504     0.10350     0.45880E-01 0.22404E-01 0.18502E-01 0.22742E-01 0.30497E-01 0.36416E-01
 0.34010E-01 0.23596E-01 0.13263E-01 0.92250E-02 0.96983E-02 0.99993E-02 0.90362E-02 0.81206E-02 0.72486E-02 0.59117E-02
 0.51453E-02 0.59117E-02 0.72486E-02 0.81206E-02 0.90362E-02 0.99993E-02 0.96983E-02 0.92250E-02 0.13263E-01 0.23596E-01
 0.34010E-01 0.36416E-01 0.30497E-01 0.22742E-01 0.18502E-01 0.22404E-01 0.45880E-01 0.10350     0.19504     0.29644    
 0.37656     0.42342     0.45183     0.48739     0.54429     0.61268     0.66142     0.65779     0.59515     0.50322    
 0.42507     0.38278     0.42124     0.40763     0.37048     0.32146     0.27878     0.25920     0.26727     0.29142    
 0.31177     0.31206     0.28564     0.23437     0.16721     0.99869E-01 0.49601E-01 0.24715E-01 0.19423E-01 0.21559E-01
 0.24376E-01 0.28088E-01 0.31991E-01 0.31275E-01 0.23596E-01 0.13961E-01 0.90952E-02 0.95192E-02 0.10912E-01 0.11228E-01
 0.11806E-01 0.12322E-01 0.10000E-01 0.50615E-02 0.23641E-02 0.50615E-02 0.10000E-01 0.12322E-01 0.11806E-01 0.11228E-01
 0.10912E-01 0.95192E-02 0.90952E-02 0.13961E-01 0.23596E-01 0.31275E-01 0.31991E-01 0.28088E-01 0.24376E-01 0.21559E-01
 0.19423E-01 0.24715E-01 0.49601E-01 0.99869E-01 0.16721     0.23437     0.28564     0.31206     0.31177     0.29142    
 0.26727     0.25920     0.27878     0.32146     0.37048     0.40763     0.42495     0.39773     0.31959     0.20944    
 0.10755     0.55080E-01 0.62746E-01 0.10492     0.14428     0.15691     0.13769     0.95274E-01 0.48333E-01 0.17727E-01
 0.12258E-01 0.22544E-01 0.32959E-01 0.37093E-01 0.37847E-01 0.36892E-01 0.31678E-01 0.22137E-01 0.13263E-01 0.90952E-02
 0.87296E-02 0.98793E-02 0.12233E-01 0.15236E-01 0.16210E-01 0.13457E-01 0.89303E-02 0.56848E-02 0.46733E-02 0.56848E-02
 0.89303E-02 0.13457E-01 0.16210E-01 0.15236E-01 0.12233E-01 0.98793E-02 0.87296E-02 0.90952E-02 0.13263E-01 0.22137E-01
 0.31678E-01 0.36892E-01 0.37847E-01 0.37093E-01 0.32959E-01 0.22544E-01 0.12258E-01 0.17727E-01 0.48333E-01 0.95274E-01
 0.13769     0.15691     0.14428     0.10492     0.62746E-01 0.55080E-01 0.10755     0.20944     0.31959     0.39773    
 -.72618E-01 -.59738E-01 -.26414E-01 0.16294E-01 0.57801E-01 0.86827E-01 0.91420E-01 0.69018E-01 0.34332E-01 0.90026E-02
 0.25875E-02 0.87196E-02 0.18323E-01 0.28657E-01 0.38770E-01 0.45117E-01 0.46195E-01 0.45357E-01 0.44312E-01 0.39046E-01
 0.27220E-01 0.14806E-01 0.92250E-02 0.95192E-02 0.98793E-02 0.98196E-02 0.13027E-01 0.17755E-01 0.17291E-01 0.10914E-01
 0.60224E-02 0.67858E-02 0.84328E-02 0.67858E-02 0.60224E-02 0.10914E-01 0.17291E-01 0.17755E-01 0.13027E-01 0.98196E-02
 0.98793E-02 0.95192E-02 0.92250E-02 0.14806E-01 0.27220E-01 0.39046E-01 0.44312E-01 0.45357E-01 0.46195E-01 0.45117E-01
 0.38770E-01 0.28657E-01 0.18323E-01 0.87196E-02 0.25875E-02 0.90026E-02 0.34332E-01 0.69018E-01 0.91420E-01 0.86827E-01
 0.57801E-01 0.16294E-01 -.26414E-01 -.59738E-01 -.29261     -.25940     -.16886     -.48123E-01 0.62429E-01 0.12437    
 0.12180     0.71534E-01 0.11900E-01 -.22625E-01 -.20913E-01 0.46885E-02 0.33292E-01 0.50690E-01 0.54744E-01 0.51344E-01
 0.46943E-01 0.43408E-01 0.38280E-01 0.29455E-01 0.19027E-01 0.11694E-01 0.96983E-02 0.10912E-01 0.12233E-01 0.13027E-01
 0.14002E-01 0.14399E-01 0.12650E-01 0.93251E-02 0.69975E-02 0.67941E-02 0.71496E-02 0.67941E-02 0.69975E-02 0.93251E-02
 0.12650E-01 0.14399E-01 0.14002E-01 0.13027E-01 0.12233E-01 0.10912E-01 0.96983E-02 0.11694E-01 0.19027E-01 0.29455E-01
 0.38280E-01 0.43408E-01 0.46943E-01 0.51344E-01 0.54744E-01 0.50690E-01 0.33292E-01 0.46885E-02 -.20913E-01 -.22625E-01
 0.11900E-01 0.71534E-01 0.12180     0.12437     0.62429E-01 -.48123E-01 -.16886     -.25940     0.16203     0.15412    
 0.13267     0.10345     0.74015E-01 0.52770E-01 0.45800E-01 0.51658E-01 0.61049E-01 0.64686E-01 0.60869E-01 0.53788E-01
 0.46827E-01 0.41009E-01 0.37876E-01 0.38538E-01 0.39666E-01 0.35534E-01 0.25638E-01 0.16077E-01 0.11590E-01 0.10517E-01
 0.99993E-02 0.11228E-01 0.15236E-01 0.17755E-01 0.14399E-01 0.85492E-02 0.73407E-02 0.10640E-01 0.11200E-01 0.65912E-02
 0.34259E-02 0.65912E-02 0.11200E-01 0.10640E-01 0.73407E-02 0.85492E-02 0.14399E-01 0.17755E-01 0.15236E-01 0.11228E-01
 0.99993E-02 0.10517E-01 0.11590E-01 0.16077E-01 0.25638E-01 0.35534E-01 0.39666E-01 0.38538E-01 0.37876E-01 0.41009E-01
 0.46827E-01 0.53788E-01 0.60869E-01 0.64686E-01 0.61049E-01 0.51658E-01 0.45800E-01 0.52770E-01 0.74015E-01 0.10345    
 0.13267     0.15412     0.43520     0.40070     0.30630     0.18003     0.64507E-01 -.92379E-03 -.32022E-02 0.36838E-01
 0.81387E-01 0.10216     0.93893E-01 0.68509E-01 0.41889E-01 0.25124E-01 0.21334E-01 0.25467E-01 0.28338E-01 0.24494E-01
 0.16597E-01 0.10740E-01 0.88935E-02 0.86534E-02 0.90362E-02 0.11806E-01 0.16210E-01 0.17291E-01 0.12650E-01 0.73407E-02
 0.75762E-02 0.11653E-01 0.12402E-01 0.81326E-02 0.52233E-02 0.81326E-02 0.12402E-01 0.11653E-01 0.75762E-02 0.73407E-02
 0.12650E-01 0.17291E-01 0.16210E-01 0.11806E-01 0.90362E-02 0.86534E-02 0.88935E-02 0.10740E-01 0.16597E-01 0.24494E-01
 0.28338E-01 0.25467E-01 0.21334E-01 0.25124E-01 0.41889E-01 0.68509E-01 0.93893E-01 0.10216     0.81387E-01 0.36838E-01
 -.32022E-02 -.92379E-03 0.64507E-01 0.18003     0.30630     0.40070     0.11186E-02 0.46414E-02 0.12757E-01 0.22283E-01
 0.33485E-01 0.45348E-01 0.50789E-01 0.43536E-01 0.28394E-01 0.17921E-01 0.18330E-01 0.24154E-01 0.27537E-01 0.26923E-01
 0.24590E-01 0.21366E-01 0.17610E-01 0.15319E-01 0.15076E-01 0.13859E-01 0.98193E-02 0.65343E-02 0.81206E-02 0.12322E-01
 0.13457E-01 0.10914E-01 0.93251E-02 0.10640E-01 0.11653E-01 0.10366E-01 0.93365E-02 0.10523E-01 0.11621E-01 0.10523E-01
 0.93365E-02 0.10366E-01 0.11653E-01 0.10640E-01 0.93251E-02 0.10914E-01 0.13457E-01 0.12322E-01 0.81206E-02 0.65343E-02
 0.98193E-02 0.13859E-01 0.15076E-01 0.15319E-01 0.17610E-01 0.21366E-01 0.24590E-01 0.26923E-01 0.27537E-01 0.24154E-01
 0.18330E-01 0.17921E-01 0.28394E-01 0.43536E-01 0.50789E-01 0.45348E-01 0.33485E-01 0.22283E-01 0.12757E-01 0.46414E-02
 -.34106     -.30672     -.21532     -.96579E-01 0.12227E-01 0.77534E-01 0.82582E-01 0.39237E-01 -.15592E-01 -.44728E-01
 -.37003E-01 -.91170E-02 0.15701E-01 0.26551E-01 0.25609E-01 0.19685E-01 0.15033E-01 0.14865E-01 0.16902E-01 0.15686E-01
 0.10195E-01 0.60370E-02 0.72486E-02 0.10000E-01 0.89303E-02 0.60224E-02 0.69975E-02 0.11200E-01 0.12402E-01 0.93365E-02
 0.78046E-02 0.10641E-01 0.12910E-01 0.10641E-01 0.78046E-02 0.93365E-02 0.12402E-01 0.11200E-01 0.69975E-02 0.60224E-02
 0.89303E-02 0.10000E-01 0.72486E-02 0.60370E-02 0.10195E-01 0.15686E-01 0.16902E-01 0.14865E-01 0.15033E-01 0.19685E-01
 0.25609E-01 0.26551E-01 0.15701E-01 -.91170E-02 -.37003E-01 -.44728E-01 -.15592E-01 0.39237E-01 0.82582E-01 0.77534E-01
 0.12227E-01 -.96579E-01 -.21532     -.30672     0.20413E-01 0.21568E-01 0.23388E-01 0.22786E-01 0.18724E-01 0.13395E-01
 0.98447E-02 0.90540E-02 0.98559E-02 0.10955E-01 0.11741E-01 0.11450E-01 0.95414E-02 0.76342E-02 0.91157E-02 0.14964E-01
 0.21098E-01 0.22156E-01 0.17585E-01 0.11830E-01 0.85510E-02 0.71888E-02 0.59117E-02 0.50615E-02 0.56848E-02 0.67858E-02
 0.67941E-02 0.65912E-02 0.81326E-02 0.10523E-01 0.10641E-01 0.80959E-02 0.64501E-02 0.80959E-02 0.10641E-01 0.10523E-01
 0.81326E-02 0.65912E-02 0.67941E-02 0.67858E-02 0.56848E-02 0.50615E-02 0.59117E-02 0.71888E-02 0.85510E-02 0.11830E-01
 0.17585E-01 0.22156E-01 0.21098E-01 0.14964E-01 0.91157E-02 0.76342E-02 0.95414E-02 0.11450E-01 0.11741E-01 0.10955E-01
 0.98559E-02 0.90540E-02 0.98447E-02 0.13395E-01 0.18724E-01 0.22786E-01 0.23388E-01 0.21568E-01 0.36261     0.33235    
 0.24933     0.13641     0.28156E-01 -.39713E-01 -.48522E-01 -.10363E-01 0.38785E-01 0.65143E-01 0.59040E-01 0.33569E-01
 0.77338E-02 -.57476E-02 -.27383E-02 0.11895E-01 0.25458E-01 0.26771E-01 0.17379E-01 0.88055E-02 0.73769E-02 0.79858E-02
 0.51453E-02 0.23641E-02 0.46733E-02 0.84328E-02 0.71496E-02 0.34259E-02 0.52233E-02 0.11621E-01 0.12910E-01 0.64501E-02
 0.19734E-02 0.64501E-02 0.12910E-01 0.11621E-01 0.52233E-02 0.34259E-02 0.71496E-02 0.84328E-02 0.46733E-02 0.23641E-02
 0.51453E-02 0.79858E-02 0.73769E-02 0.88055E-02 0.17379E-01 0.26771E-01 0.25458E-01 0.11895E-01 -.27383E-02 -.57476E-02
 0.77338E-02 0.33569E-01 0.59040E-01 0.65143E-01 0.38785E-01 -.10363E-01 -.48522E-01 -.39713E-01 0.28156E-01 0.13641    
 0.24933     0.33235     0.20413E-01 0.21568E-01 0.23388E-01 0.22786E-01 0.18724E-01 0.13395E-01 0.98447E-02 0.90540E-02
 0.98559E-02 0.10955E-01 0.11741E-01 0.11450E-01 0.95414E-02 0.76342E-02 0.91157E-02 0.14964E-01 0.21098E-01 0.22156E-01
 0.17585E-01 0.11830E-01 0.85510E-02 0.71888E-02 0.59117E-02 0.50615E-02 0.56848E-02 0.67858E-02 0.67941E-02 0.65912E-02
 0.81326E-02 0.10523E-01 0.10641E-01 0.80959E-02 0.64501E-02 0.80959E-02 0.10641E-01 0.10523E-01 0.81326E-02 0.65912E-02
 0.67941E-02 0.67858E-02 0.56848E-02 0.50615E-02 0.59117E-02 0.71888E-02 0.85510E-02 0.11830E-01 0.17585E-01 0.22156E-01
 0.21098E-01 0.14964E-01 0.91157E-02 0.76342E-02 0.95414E-02 0.11450E-01 0.11741E-01 0.10955E-01 0.98559E-02 0.90540E-02
 0.98447E-02 0.13395E-01 0.18724E-01 0.22786E-01 0.23388E-01 0.21568E-01 -.34106     -.30672     -.21532     -.96579E-01
 0.12227E-01 0.77534E-01 0.82582E-01 0.39237E-01 -.15592E-01 -.44728E-01 -.37003E-01 -.91170E-02 0.15701E-01 0.26551E-01
 0.25609E-01 0.19685E-01 0.15033E-01 0.14865E-01 0.16902E-01 0.15686E-01 0.10195E-01 0.60370E-02 0.72486E-02 0.10000E-01
 0.89303E-02 0.60224E-02 0.69975E-02 0.11200E-01 0.12402E-01 0.93365E-02 0.78046E-02 0.10641E-01 0.12910E-01 0.10641E-01
 0.78046E-02 0.93365E-02 0.12402E-01 0.11200E-01 0.69975E-02 0.60224E-02 0.89303E-02 0.10000E-01 0.72486E-02 0.60370E-02
 0.10195E-01 0.15686E-01 0.16902E-01 0.14865E-01 0.15033E-01 0.19685E-01 0.25609E-01 0.26551E-01 0.15701E-01 -.91170E-02
 -.37003E-01 -.44728E-01 -.15592E-01 0.39237E-01 0.82582E-01 0.77534E-01 0.12227E-01 -.96579E-01 -.21532     -.30672    
 0.11186E-02 0.46414E-02 0.12757E-01 0.22283E-01 0.33485E-01 0.45348E-01 0.50789E-01 0.43536E-01 0.28394E-01 0.17921E-01
 0.18330E-01 0.24154E-01 0.27537E-01 0.26923E-01 0.24590E-01 0.21366E-01 0.17610E-01 0.15319E-01 0.15076E-01 0.13859E-01
 0.98193E-02 0.65343E-02 0.81206E-02 0.12322E-01 0.13457E-01 0.10914E-01 0.93251E-02 0.10640E-01 0.11653E-01 0.10366E-01
 0.93365E-02 0.10523E-01 0.11621E-01 0.10523E-01 0.93365E-02 0.10366E-01 0.11653E-01 0.10640E-01 0.93251E-02 0.10914E-01
 0.13457E-01 0.12322E-01 0.81206E-02 0.65343E-02 0.98193E-02 0.13859E-01 0.15076E-01 0.15319E-01 0.17610E-01 0.21366E-01
 0.24590E-01 0.26923E-01 0.27537E-01 0.24154E-01 0.18330E-01 0.17921E-01 0.28394E-01 0.43536E-01 0.50789E-01 0.45348E-01
 0.33485E-01 0.22283E-01 0.12757E-01 0.46414E-02 0.43520     0.40070     0.30630     0.18003     0.64507E-01 -.92379E-03
 -.32022E-02 0.36838E-01 0.81387E-01 0.10216     0.93893E-01 0.68509E-01 0.41889E-01 0.25124E-01 0.21334E-01 0.25467E-01
 0.28338E-01 0.24494E-01 0.16597E-01 0.10740E-01 0.88935E-02 0.86534E-02 0.90362E-02 0.11806E-01 0.16210E-01 0.17291E-01
 0.12650E-01 0.73407E-02 0.75762E-02 0.11653E-01 0.12402E-01 0.81326E-02 0.52233E-02 0.81326E-02 0.12402E-01 0.11653E-01
 0.75762E-02 0.73407E-02 0.12650E-01 0.17291E-01 0.16210E-01 0.11806E-01 0.90362E-02 0.86534E-02 0.88935E-02 0.10740E-01
 0.16597E-01 0.24494E-01 0.28338E-01 0.25467E-01 0.21334E-01 0.25124E-01 0.41889E-01 0.68509E-01 0.93893E-01 0.10216    
 0.81387E-01 0.36838E-01 -.32022E-02 -.92379E-03 0.64507E-01 0.18003     0.30630     0.40070     0.16203     0.15412    
 0.13267     0.10345     0.74015E-01 0.52770E-01 0.45800E-01 0.51658E-01 0.61049E-01 0.64686E-01 0.60869E-01 0.53788E-01
 0.46827E-01 0.41009E-01 0.37876E-01 0.38538E-01 0.39666E-01 0.35534E-01 0.25638E-01 0.16077E-01 0.11590E-01 0.10517E-01
 0.99993E-02 0.11228E-01 0.15236E-01 0.17755E-01 0.14399E-01 0.85492E-02 0.73407E-02 0.10640E-01 0.11200E-01 0.65912E-02
 0.34259E-02 0.65912E-02 0.11200E-01 0.10640E-01 0.73407E-02 0.85492E-02 0.14399E-01 0.17755E-01 0.15236E-01 0.11228E-01
 0.99993E-02 0.10517E-01 0.11590E-01 0.16077E-01 0.25638E-01 0.35534E-01 0.39666E-01 0.38538E-01 0.37876E-01 0.41009E-01
 0.46827E-01 0.53788E-01 0.60869E-01 0.64686E-01 0.61049E-01 0.51658E-01 0.45800E-01 0.52770E-01 0.74015E-01 0.10345    
 0.13267     0.15412     -.29261     -.25940     -.16886     -.48123E-01 0.62429E-01 0.12437     0.12180     0.71534E-01