   5   5   0   0
  0.1024000E+03  0.8000000E-09  0.8000000E-09  0.8000000E-09  0.5000000E-15
  1.000000000000000E-004
  CAR 
 unknown system                          
      3.92830294    -37.11503199  301     -9.20342657      1.00000000
    -37.115  0.0000E+00  0.0000E+00
    -36.978  0.0000E+00  0.0000E+00
    -36.841  0.0000E+00  0.0000E+00
    -36.705  0.0000E+00  0.0000E+00
    -36.568  0.0000E+00  0.0000E+00
    -36.431  0.0000E+00  0.0000E+00
    -36.294  0.8115E-16  0.1110E-16
    -36.157  0.1243E-12  0.1702E-13
    -36.021  0.1113E-09  0.1524E-10
    -35.884  0.3982E-07  0.5463E-08
    -35.747  0.5728E-05  0.7891E-06
    -35.610  0.3334E-03  0.4640E-04
    -35.473  0.7919E-02  0.1130E-02
    -35.336  0.7753E-01  0.1174E-01
    -35.200  0.3159E+00  0.5495E-01
    -35.063  0.5396E+00  0.1288E+00
    -34.926  0.3880E+00  0.1819E+00
    -34.789  0.1171E+00  0.1979E+00
    -34.652  0.1474E-01  0.1999E+00
    -34.516  0.7667E-03  0.2000E+00
    -34.379  0.1631E-04  0.2000E+00
    -34.242  0.1406E-06  0.2000E+00
    -34.105  0.4882E-09  0.2000E+00
    -33.968  0.6784E-12  0.2000E+00
    -33.832  0.3246E-15  0.2000E+00
    -33.695  0.0000E+00  0.2000E+00
    -33.558  0.0000E+00  0.2000E+00
    -33.421  0.0000E+00  0.2000E+00
    -33.284  0.0000E+00  0.2000E+00
    -33.148  0.2023E-12  0.2000E+00
    -33.011  0.1955E-09  0.2000E+00
    -32.874  0.7554E-07  0.2000E+00
    -32.737  0.1173E-04  0.2000E+00
    -32.600  0.7361E-03  0.2001E+00
    -32.463  0.1885E-01  0.2027E+00
    -32.327  0.1987E+00  0.2299E+00
    -32.190  0.8709E+00  0.3490E+00
    -32.053  0.1600E+01  0.5679E+00
    -31.916  0.1237E+01  0.7372E+00
    -31.779  0.4017E+00  0.7921E+00
    -31.643  0.5444E-01  0.7996E+00
    -31.506  0.3050E-02  0.8000E+00
    -31.369  0.6996E-04  0.8000E+00
    -31.232  0.6511E-06  0.8000E+00
    -31.095  0.2440E-08  0.8000E+00
    -30.959  0.3662E-11  0.8000E+00
    -30.822  0.1948E-14  0.8000E+00
    -30.685  0.0000E+00  0.8000E+00
    -30.548  0.0000E+00  0.8000E+00
    -30.411  0.0000E+00  0.8000E+00
    -30.274  0.0000E+00  0.8000E+00
    -30.138  0.0000E+00  0.8000E+00
    -30.001  0.0000E+00  0.8000E+00
    -29.864  0.0000E+00  0.8000E+00
    -29.727  0.0000E+00  0.8000E+00
    -29.590  0.0000E+00  0.8000E+00
    -29.454  0.0000E+00  0.8000E+00
    -29.317  0.0000E+00  0.8000E+00
    -29.180  0.0000E+00  0.8000E+00
    -29.043  0.0000E+00  0.8000E+00
    -28.906  0.0000E+00  0.8000E+00
    -28.770  0.0000E+00  0.8000E+00
    -28.633  0.0000E+00  0.8000E+00
    -28.496  0.0000E+00  0.8000E+00
    -28.359  0.0000E+00  0.8000E+00
    -28.222  0.0000E+00  0.8000E+00
    -28.085  0.0000E+00  0.8000E+00
    -27.949  0.0000E+00  0.8000E+00
    -27.812  0.0000E+00  0.8000E+00
    -27.675  0.0000E+00  0.8000E+00
    -27.538  0.0000E+00  0.8000E+00
    -27.401  0.0000E+00  0.8000E+00
    -27.265  0.0000E+00  0.8000E+00
    -27.128  0.0000E+00  0.8000E+00
    -26.991  0.0000E+00  0.8000E+00
    -26.854  0.0000E+00  0.8000E+00
    -26.717  0.0000E+00  0.8000E+00
    -26.581  0.0000E+00  0.8000E+00
    -26.444  0.0000E+00  0.8000E+00
    -26.307  0.0000E+00  0.8000E+00
    -26.170  0.0000E+00  0.8000E+00
    -26.033  0.0000E+00  0.8000E+00
    -25.897  0.0000E+00  0.8000E+00
    -25.760  0.0000E+00  0.8000E+00
    -25.623  0.0000E+00  0.8000E+00
    -25.486  0.0000E+00  0.8000E+00
    -25.349  0.0000E+00  0.8000E+00
    -25.212  0.0000E+00  0.8000E+00
    -25.076  0.0000E+00  0.8000E+00
    -24.939  0.0000E+00  0.8000E+00
    -24.802  0.0000E+00  0.8000E+00
    -24.665  0.0000E+00  0.8000E+00
    -24.528  0.0000E+00  0.8000E+00
    -24.392  0.0000E+00  0.8000E+00
    -24.255  0.0000E+00  0.8000E+00
    -24.118  0.0000E+00  0.8000E+00
    -23.981  0.0000E+00  0.8000E+00
    -23.844  0.0000E+00  0.8000E+00
    -23.708  0.0000E+00  0.8000E+00
    -23.571  0.0000E+00  0.8000E+00
    -23.434  0.0000E+00  0.8000E+00
    -23.297  0.0000E+00  0.8000E+00
    -23.160  0.0000E+00  0.8000E+00
    -23.023  0.0000E+00  0.8000E+00
    -22.887  0.0000E+00  0.8000E+00
    -22.750  0.0000E+00  0.8000E+00
    -22.613  0.0000E+00  0.8000E+00
    -22.476  0.0000E+00  0.8000E+00
    -22.339  0.0000E+00  0.8000E+00
    -22.203  0.0000E+00  0.8000E+00
    -22.066  0.0000E+00  0.8000E+00
    -21.929  0.0000E+00  0.8000E+00
    -21.792  0.0000E+00  0.8000E+00
    -21.655  0.0000E+00  0.8000E+00
    -21.519  0.0000E+00  0.8000E+00
    -21.382  0.0000E+00  0.8000E+00
    -21.245  0.0000E+00  0.8000E+00
    -21.108  0.0000E+00  0.8000E+00
    -20.971  0.0000E+00  0.8000E+00
    -20.835  0.0000E+00  0.8000E+00
    -20.698  0.0000E+00  0.8000E+00
    -20.561  0.0000E+00  0.8000E+00
    -20.424  0.0000E+00  0.8000E+00
    -20.287  0.0000E+00  0.8000E+00
    -20.150  0.0000E+00  0.8000E+00
    -20.014  0.0000E+00  0.8000E+00
    -19.877  0.0000E+00  0.8000E+00
    -19.740  0.0000E+00  0.8000E+00
    -19.603  0.0000E+00  0.8000E+00
    -19.466  0.0000E+00  0.8000E+00
    -19.330  0.4301E-14  0.8000E+00
    -19.193  0.5847E-11  0.8000E+00
    -19.056  0.3159E-08  0.8000E+00
    -18.919  0.6844E-06  0.8000E+00
    -18.782  0.5981E-04  0.8000E+00
    -18.646  0.2124E-02  0.8003E+00
    -18.509  0.3096E-01  0.8045E+00
    -18.372  0.1869E+00  0.8301E+00
    -18.235  0.4720E+00  0.8947E+00
    -18.098  0.5010E+00  0.9632E+00
    -17.961  0.2237E+00  0.9938E+00
    -17.825  0.4179E-01  0.9995E+00
    -17.688  0.3239E-02  0.1000E+01
    -17.551  0.1032E-03  0.1000E+01
    -17.414  0.1337E-05  0.1000E+01
    -17.277  0.6998E-08  0.1000E+01
    -17.141  0.1469E-10  0.1000E+01
    -17.004  0.1233E-13  0.1000E+01
    -16.867  0.2848E-13  0.1000E+01
    -16.730  0.3509E-10  0.1000E+01
    -16.593  0.1725E-07  0.1000E+01
    -16.457  0.3400E-05  0.1000E+01
    -16.320  0.2706E-03  0.1000E+01
    -16.183  0.8762E-02  0.1001E+01
    -16.046  0.1165E+00  0.1017E+01
    -15.909  0.6426E+00  0.1105E+01
    -15.772  0.1483E+01  0.1308E+01
    -15.636  0.1439E+01  0.1505E+01
    -15.499  0.5874E+00  0.1585E+01
    -15.362  0.1002E+00  0.1599E+01
    -15.225  0.7091E-02  0.1600E+01
    -15.088  0.2059E-03  0.1600E+01
    -14.952  0.2430E-05  0.1600E+01
    -14.815  0.1158E-07  0.1600E+01
    -14.678  0.2211E-10  0.1600E+01
    -14.541  0.1655E-13  0.1600E+01
    -14.404  0.0000E+00  0.1600E+01
    -14.268  0.0000E+00  0.1600E+01
    -14.131  0.0000E+00  0.1600E+01
    -13.994  0.0000E+00  0.1600E+01
    -13.857  0.0000E+00  0.1600E+01
    -13.720  0.0000E+00  0.1600E+01
    -13.584  0.0000E+00  0.1600E+01
    -13.447  0.0000E+00  0.1600E+01
    -13.310  0.0000E+00  0.1600E+01
    -13.173  0.1623E-14  0.1600E+01
    -13.036  0.2792E-11  0.1600E+01
    -12.899  0.1828E-08  0.1600E+01
    -12.763  0.4792E-06  0.1600E+01
    -12.626  0.5060E-04  0.1600E+01
    -12.489  0.2168E-02  0.1600E+01
    -12.352  0.3804E-01  0.1606E+01
    -12.215  0.2760E+00  0.1643E+01
    -12.079  0.8361E+00  0.1758E+01
    -11.942  0.1076E+01  0.1905E+01
    -11.805  0.7189E+00  0.2003E+01
    -11.668  0.8721E+00  0.2122E+01
    -11.531  0.1559E+01  0.2336E+01
    -11.395  0.1353E+01  0.2521E+01
    -11.258  0.4970E+00  0.2589E+01
    -11.121  0.7630E-01  0.2599E+01
    -10.984  0.4850E-02  0.2600E+01
    -10.847  0.1551E-03  0.2600E+01
    -10.710  0.1509E-02  0.2600E+01
    -10.574  0.3231E-01  0.2605E+01
    -10.437  0.2858E+00  0.2644E+01
    -10.300  0.1053E+01  0.2788E+01
    -10.163  0.1629E+01  0.3011E+01
    -10.026  0.1060E+01  0.3156E+01
     -9.890  0.2894E+00  0.3195E+01
     -9.753  0.3293E-01  0.3200E+01
     -9.616  0.1546E-02  0.3200E+01
     -9.479  0.2964E-04  0.3200E+01
     -9.342  0.2303E-06  0.3200E+01
     -9.206  0.7197E-09  0.3200E+01
     -9.069  0.8998E-12  0.3200E+01
     -8.932  0.4869E-15  0.3200E+01
     -8.795  0.0000E+00  0.3200E+01
     -8.658  0.0000E+00  0.3200E+01
     -8.522  0.0000E+00  0.3200E+01
     -8.385  0.0000E+00  0.3200E+01
     -8.248  0.0000E+00  0.3200E+01
     -8.111  0.0000E+00  0.3200E+01
     -7.974  0.0000E+00  0.3200E+01
     -7.837  0.0000E+00  0.3200E+01
     -7.701  0.0000E+00  0.3200E+01
     -7.564  0.0000E+00  0.3200E+01
     -7.427  0.0000E+00  0.3200E+01
     -7.290  0.0000E+00  0.3200E+01
     -7.153  0.0000E+00  0.3200E+01
     -7.017  0.0000E+00  0.3200E+01
     -6.880  0.0000E+00  0.3200E+01
     -6.743  0.0000E+00  0.3200E+01
     -6.606  0.0000E+00  0.3200E+01
     -6.469  0.0000E+00  0.3200E+01
     -6.333  0.0000E+00  0.3200E+01
     -6.196  0.0000E+00  0.3200E+01
     -6.059  0.0000E+00  0.3200E+01
     -5.922  0.0000E+00  0.3200E+01
     -5.785  0.0000E+00  0.3200E+01
     -5.648  0.0000E+00  0.3200E+01
     -5.512  0.0000E+00  0.3200E+01
     -5.375  0.0000E+00  0.3200E+01
     -5.238  0.0000E+00  0.3200E+01
     -5.101  0.0000E+00  0.3200E+01
     -4.964  0.0000E+00  0.3200E+01
     -4.828  0.0000E+00  0.3200E+01
     -4.691  0.0000E+00  0.3200E+01
     -4.554  0.0000E+00  0.3200E+01
     -4.417  0.0000E+00  0.3200E+01
     -4.280  0.0000E+00  0.3200E+01
     -4.144  0.0000E+00  0.3200E+01
     -4.007  0.0000E+00  0.3200E+01
     -3.870  0.0000E+00  0.3200E+01
     -3.733  0.0000E+00  0.3200E+01
     -3.596  0.0000E+00  0.3200E+01
     -3.459  0.0000E+00  0.3200E+01
     -3.323  0.0000E+00  0.3200E+01
     -3.186  0.0000E+00  0.3200E+01
     -3.049  0.0000E+00  0.3200E+01
     -2.912  0.0000E+00  0.3200E+01
     -2.775  0.0000E+00  0.3200E+01
     -2.639  0.0000E+00  0.3200E+01
     -2.502  0.0000E+00  0.3200E+01
     -2.365  0.0000E+00  0.3200E+01
     -2.228  0.0000E+00  0.3200E+01
     -2.091  0.0000E+00  0.3200E+01
     -1.955  0.0000E+00  0.3200E+01
     -1.818  0.0000E+00  0.3200E+01
     -1.681  0.0000E+00  0.3200E+01
     -1.544  0.5518E-14  0.3200E+01
     -1.407  0.7251E-11  0.3200E+01
     -1.271  0.3805E-08  0.3200E+01
     -1.134  0.8007E-06  0.3200E+01
     -0.997  0.6797E-04  0.3200E+01
     -0.860  0.2346E-02  0.3200E+01
     -0.723  0.3324E-01  0.3205E+01
     -0.586  0.1952E+00  0.3232E+01
     -0.450  0.4793E+00  0.3297E+01
     -0.313  0.4948E+00  0.3365E+01
     -0.176  0.2149E+00  0.3394E+01
     -0.039  0.3904E-01  0.3400E+01
      0.098  0.2942E-02  0.3400E+01
      0.234  0.9105E-04  0.3400E+01
      0.371  0.1147E-05  0.3400E+01
      0.508  0.5828E-08  0.3400E+01
      0.645  0.1188E-10  0.3400E+01
      0.782  0.1096E-13  0.3400E+01
      0.918  0.2036E-11  0.3400E+01
      1.055  0.1465E-08  0.3400E+01
      1.192  0.4220E-06  0.3400E+01
      1.329  0.4893E-04  0.3400E+01
      1.466  0.2300E-02  0.3400E+01
      1.603  0.4423E-01  0.3406E+01
      1.739  0.3514E+00  0.3454E+01
      1.876  0.1164E+01  0.3614E+01
      2.013  0.1619E+01  0.3835E+01
      2.150  0.9475E+00  0.3965E+01
      2.287  0.2326E+00  0.3997E+01
      2.423  0.2376E-01  0.4000E+01
      2.560  0.1000E-02  0.4000E+01
      2.697  0.1718E-04  0.4000E+01
      2.834  0.1194E-06  0.4000E+01
      2.971  0.3338E-09  0.4000E+01
      3.107  0.3730E-12  0.4000E+01
      3.244  0.0000E+00  0.4000E+01
      3.381  0.0000E+00  0.4000E+01
      3.518  0.0000E+00  0.4000E+01
      3.655  0.0000E+00  0.4000E+01
      3.791  0.0000E+00  0.4000E+01
      3.928  0.0000E+00  0.4000E+01
