    5    5   10    1
  0.1024000E+03  0.8000000E-09  0.8000000E-09  0.8000000E-09  0.5000000E-15
  1.000000000000000E-004
  CAR 
 unknown system                          
   32    1   20
 
  0.0000000E+00  0.0000000E+00  0.0000000E+00  0.1000000E+01
   1      -35.115032
   2      -32.093706
   3      -32.093706
   4      -32.093706
   5      -18.225672
   6      -15.777224
   7      -15.777224
   8      -15.777224
   9      -12.040554
  10      -12.040554
  11      -11.552603
  12      -11.552603
  13      -11.552603
  14      -10.231157
  15      -10.231157
  16      -10.231157
  17       -0.444599
  18        1.928291
  19        1.928297
  20        1.928303
