 running on    1 nodes
 distr:  one band on    1 nodes,    1 groups
 vasp.5.2.12 11Nov11 complex                                                    
  
 POSCAR found :  2 types and       5 ions
 LDA part: xc-table for Pade appr. of Perdew
 POSCAR, INCAR and KPOINTS ok, starting setup
 WARNING: small aliasing (wrap around) errors must be expected
 FFT: planning ...(           2 )
 WAVECAR not read
 entering main loop
       N       E                     dE             d eps       ncg     rms          rms(c)
DAV:   1     0.314170900308E+03    0.31417E+03   -0.99021E+03    40   0.111E+03
DAV:   2     0.484601795336E+02   -0.26571E+03   -0.25889E+03    60   0.206E+02
DAV:   3    -0.155610893471E+02   -0.64021E+02   -0.63877E+02    44   0.123E+02
DAV:   4    -0.175355515650E+02   -0.19745E+01   -0.19606E+01    48   0.280E+01
DAV:   5    -0.176089629473E+02   -0.73411E-01   -0.73106E-01    64   0.490E+00    0.448E+00
DAV:   6    -0.173647294251E+02    0.24423E+00   -0.23920E-01    44   0.291E+00    0.253E+00
DAV:   7    -0.172859065234E+02    0.78823E-01   -0.20701E-01    48   0.266E+00    0.439E-01
DAV:   8    -0.172865236362E+02   -0.61711E-03   -0.11966E-02    56   0.735E-01    0.177E-01
DAV:   9    -0.172876277562E+02   -0.11041E-02   -0.10499E-03    48   0.222E-01    0.566E-02
DAV:  10    -0.172886690094E+02   -0.10413E-02   -0.21682E-04    32   0.106E-01    0.163E-02
DAV:  11    -0.172893590720E+02   -0.69006E-03   -0.14398E-04    32   0.673E-02    0.158E-02
DAV:  12    -0.172900304851E+02   -0.67141E-03   -0.64874E-05    32   0.640E-02    0.678E-03
DAV:  13    -0.172900866824E+02   -0.56197E-04   -0.21525E-05    32   0.311E-02
   1 F= -.17290087E+02 E0= -.17290087E+02  d E =-.172901E+02
 curvature:   0.00 expect dE= 0.000E+00 dE for cont linesearch  0.000E+00
 trial: gam= 0.00000 g(F)=  0.795E-02 g(S)=  0.000E+00 ort = 0.000E+00 (trialstep = 0.100E+01)
 search vector abs. value=  0.795E-02
 bond charge predicted
       N       E                     dE             d eps       ncg     rms          rms(c)
DAV:   1    -0.172908223297E+02   -0.79184E-03   -0.69475E-01    48   0.480E+00    0.146E-01
DAV:   2    -0.172932888455E+02   -0.24665E-02   -0.29112E-02    48   0.126E+00    0.113E-01
DAV:   3    -0.172931960584E+02    0.92787E-04   -0.63507E-04    48   0.189E-01
   2 F= -.17293196E+02 E0= -.17293196E+02  d E =-.310938E-02
 trial-energy change:   -0.003109  1 .order   -0.003124   -0.007947    0.001698
 step:   0.8240(harm=  0.8240)  dis= 0.00466  next Energy=   -17.293360 (dE=-0.327E-02)
 bond charge predicted
       N       E                     dE             d eps       ncg     rms          rms(c)
DAV:   1    -0.172932389323E+02    0.49913E-04   -0.22855E-02    48   0.874E-01    0.288E-02
DAV:   2    -0.172933508845E+02   -0.11195E-03   -0.11907E-03    48   0.243E-01    0.990E-03
DAV:   3    -0.172933481920E+02    0.26925E-05   -0.11532E-05    32   0.319E-02
   3 F= -.17293348E+02 E0= -.17293348E+02  d E =-.326151E-02
 curvature:  -0.41 expect dE=-0.290E-05 dE for cont linesearch -0.290E-05
 trial: gam= 0.00000 g(F)=  0.703E-05 g(S)=  0.000E+00 ort =-0.236E-03 (trialstep = 0.965E+00)
 search vector abs. value=  0.703E-05
 reached required accuracy - stopping structural energy minimisation
 writing wavefunctions
NPROCS =  1
