   5   5   0   0
  0.1024000E+03  0.8000000E-09  0.8000000E-09  0.8000000E-09  0.5000000E-15
  1.000000000000000E-004
  CAR 
 unknown system                          
      2.19846470    -24.98981637  301     -5.05138957      1.00000000
    -24.990  0.0000E+00  0.0000E+00
    -24.899  0.0000E+00  0.0000E+00
    -24.809  0.0000E+00  0.0000E+00
    -24.718  0.0000E+00  0.0000E+00
    -24.627  0.0000E+00  0.0000E+00
    -24.537  0.0000E+00  0.0000E+00
    -24.446  0.0000E+00  0.0000E+00
    -24.355  0.0000E+00  0.0000E+00
    -24.265  0.0000E+00  0.0000E+00
    -24.174  0.0000E+00  0.0000E+00
    -24.084  0.1152E-13  0.1044E-14
    -23.993  0.1437E-11  0.1313E-12
    -23.902  0.1202E-09  0.1103E-10
    -23.812  0.6719E-08  0.6199E-09
    -23.721  0.2508E-06  0.2335E-07
    -23.630  0.6262E-05  0.5909E-06
    -23.540  0.1046E-03  0.1007E-04
    -23.449  0.1171E-02  0.1162E-03
    -23.359  0.8792E-02  0.9131E-03
    -23.268  0.4428E-01  0.4927E-02
    -23.177  0.1498E+00  0.1850E-01
    -23.087  0.3405E+00  0.4936E-01
    -22.996  0.5203E+00  0.9651E-01
    -22.905  0.5346E+00  0.1450E+00
    -22.815  0.3693E+00  0.1784E+00
    -22.724  0.1716E+00  0.1940E+00
    -22.633  0.5355E-01  0.1988E+00
    -22.543  0.1123E-01  0.1998E+00
    -22.452  0.1580E-02  0.2000E+00
    -22.362  0.1490E-03  0.2000E+00
    -22.271  0.9422E-05  0.2000E+00
    -22.180  0.3987E-06  0.2000E+00
    -22.090  0.1128E-07  0.2000E+00
    -21.999  0.2134E-09  0.2000E+00
    -21.908  0.2695E-11  0.2000E+00
    -21.818  0.2279E-13  0.2000E+00
    -21.727  0.0000E+00  0.2000E+00
    -21.637  0.0000E+00  0.2000E+00
    -21.546  0.0000E+00  0.2000E+00
    -21.455  0.0000E+00  0.2000E+00
    -21.365  0.0000E+00  0.2000E+00
    -21.274  0.0000E+00  0.2000E+00
    -21.183  0.0000E+00  0.2000E+00
    -21.093  0.0000E+00  0.2000E+00
    -21.002  0.7350E-15  0.2000E+00
    -20.912  0.9996E-13  0.2000E+00
    -20.821  0.1152E-10  0.2000E+00
    -20.730  0.8843E-09  0.2000E+00
    -20.640  0.4531E-07  0.2000E+00
    -20.549  0.1552E-05  0.2000E+00
    -20.458  0.3554E-04  0.2000E+00
    -20.368  0.5450E-03  0.2001E+00
    -20.277  0.5599E-02  0.2006E+00
    -20.187  0.3858E-01  0.2041E+00
    -20.096  0.1784E+00  0.2202E+00
    -20.005  0.5541E+00  0.2704E+00
    -19.915  0.1157E+01  0.3753E+00
    -19.824  0.1623E+01  0.5224E+00
    -19.733  0.1532E+01  0.6612E+00
    -19.643  0.9720E+00  0.7493E+00
    -19.552  0.4146E+00  0.7869E+00
    -19.462  0.1188E+00  0.7976E+00
    -19.371  0.2288E-01  0.7997E+00
    -19.280  0.2955E-02  0.8000E+00
    -19.190  0.2558E-03  0.8000E+00
    -19.099  0.1484E-04  0.8000E+00
    -19.008  0.5761E-06  0.8000E+00
    -18.918  0.1496E-07  0.8000E+00
    -18.827  0.2594E-09  0.8000E+00
    -18.737  0.3004E-11  0.8000E+00
    -18.646  0.2352E-13  0.8000E+00
    -18.555  0.0000E+00  0.8000E+00
    -18.465  0.0000E+00  0.8000E+00
    -18.374  0.0000E+00  0.8000E+00
    -18.283  0.0000E+00  0.8000E+00
    -18.193  0.0000E+00  0.8000E+00
    -18.102  0.0000E+00  0.8000E+00
    -18.011  0.0000E+00  0.8000E+00
    -17.921  0.0000E+00  0.8000E+00
    -17.830  0.0000E+00  0.8000E+00
    -17.740  0.0000E+00  0.8000E+00
    -17.649  0.0000E+00  0.8000E+00
    -17.558  0.0000E+00  0.8000E+00
    -17.468  0.0000E+00  0.8000E+00
    -17.377  0.0000E+00  0.8000E+00
    -17.286  0.0000E+00  0.8000E+00
    -17.196  0.0000E+00  0.8000E+00
    -17.105  0.0000E+00  0.8000E+00
    -17.015  0.0000E+00  0.8000E+00
    -16.924  0.0000E+00  0.8000E+00
    -16.833  0.0000E+00  0.8000E+00
    -16.743  0.0000E+00  0.8000E+00
    -16.652  0.0000E+00  0.8000E+00
    -16.561  0.0000E+00  0.8000E+00
    -16.471  0.0000E+00  0.8000E+00
    -16.380  0.0000E+00  0.8000E+00
    -16.290  0.0000E+00  0.8000E+00
    -16.199  0.0000E+00  0.8000E+00
    -16.108  0.0000E+00  0.8000E+00
    -16.018  0.0000E+00  0.8000E+00
    -15.927  0.0000E+00  0.8000E+00
    -15.836  0.0000E+00  0.8000E+00
    -15.746  0.0000E+00  0.8000E+00
    -15.655  0.0000E+00  0.8000E+00
    -15.565  0.0000E+00  0.8000E+00
    -15.474  0.0000E+00  0.8000E+00
    -15.383  0.0000E+00  0.8000E+00
    -15.293  0.4778E-14  0.8000E+00
    -15.202  0.6365E-12  0.8000E+00
    -15.111  0.5717E-10  0.8000E+00
    -15.021  0.3427E-08  0.8000E+00
    -14.930  0.1373E-06  0.8000E+00
    -14.840  0.3676E-05  0.8000E+00
    -14.749  0.6588E-04  0.8000E+00
    -14.658  0.7909E-03  0.8001E+00
    -14.568  0.6365E-02  0.8007E+00
    -14.477  0.3437E-01  0.8038E+00
    -14.386  0.1246E+00  0.8151E+00
    -14.296  0.3036E+00  0.8426E+00
    -14.205  0.4972E+00  0.8876E+00
    -14.115  0.5475E+00  0.9372E+00
    -14.024  0.4054E+00  0.9740E+00
    -13.933  0.2018E+00  0.9923E+00
    -13.843  0.6753E-01  0.9984E+00
    -13.752  0.1518E-01  0.9998E+00
    -13.661  0.2289E-02  0.1000E+01
    -13.571  0.2316E-03  0.1000E+01
    -13.480  0.1570E-04  0.1000E+01
    -13.389  0.7128E-06  0.1000E+01
    -13.299  0.2164E-07  0.1000E+01
    -13.208  0.4391E-09  0.1000E+01
    -13.118  0.5951E-11  0.1000E+01
    -13.027  0.5366E-13  0.1000E+01
    -12.936  0.4900E-15  0.1000E+01
    -12.846  0.0000E+00  0.1000E+01
    -12.755  0.0000E+00  0.1000E+01
    -12.664  0.0000E+00  0.1000E+01
    -12.574  0.0000E+00  0.1000E+01
    -12.483  0.0000E+00  0.1000E+01
    -12.393  0.0000E+00  0.1000E+01
    -12.302  0.0000E+00  0.1000E+01
    -12.211  0.0000E+00  0.1000E+01
    -12.121  0.3675E-15  0.1000E+01
    -12.030  0.9261E-13  0.1000E+01
    -11.939  0.1070E-10  0.1000E+01
    -11.849  0.8266E-09  0.1000E+01
    -11.758  0.4264E-07  0.1000E+01
    -11.668  0.1470E-05  0.1000E+01
    -11.577  0.3388E-04  0.1000E+01
    -11.486  0.5230E-03  0.1000E+01
    -11.396  0.5408E-02  0.1001E+01
    -11.305  0.3751E-01  0.1004E+01
    -11.214  0.1746E+00  0.1020E+01
    -11.124  0.5457E+00  0.1069E+01
    -11.033  0.1147E+01  0.1173E+01
    -10.943  0.1619E+01  0.1320E+01
    -10.852  0.1538E+01  0.1459E+01
    -10.761  0.9823E+00  0.1548E+01
    -10.671  0.4218E+00  0.1587E+01
    -10.580  0.1217E+00  0.1598E+01
    -10.489  0.2357E-01  0.1600E+01
    -10.399  0.3065E-02  0.1600E+01
    -10.308  0.2671E-03  0.1600E+01
    -10.218  0.1560E-04  0.1600E+01
    -10.127  0.6094E-06  0.1600E+01
    -10.036  0.1592E-07  0.1600E+01
     -9.946  0.2780E-09  0.1600E+01
     -9.855  0.3241E-11  0.1600E+01
     -9.764  0.2499E-13  0.1600E+01
     -9.674  0.0000E+00  0.1600E+01
     -9.583  0.0000E+00  0.1600E+01
     -9.492  0.0000E+00  0.1600E+01
     -9.402  0.0000E+00  0.1600E+01
     -9.311  0.0000E+00  0.1600E+01
     -9.221  0.0000E+00  0.1600E+01
     -9.130  0.0000E+00  0.1600E+01
     -9.039  0.0000E+00  0.1600E+01
     -8.949  0.0000E+00  0.1600E+01
     -8.858  0.0000E+00  0.1600E+01
     -8.767  0.0000E+00  0.1600E+01
     -8.677  0.1103E-13  0.1600E+01
     -8.586  0.1451E-11  0.1600E+01
     -8.496  0.1289E-09  0.1600E+01
     -8.405  0.7640E-08  0.1600E+01
     -8.314  0.3026E-06  0.1600E+01
     -8.224  0.8013E-05  0.1600E+01
     -8.133  0.1420E-03  0.1600E+01
     -8.042  0.1686E-02  0.1600E+01
     -7.952  0.1342E-01  0.1601E+01
     -7.861  0.7164E-01  0.1608E+01
     -7.771  0.2569E+00  0.1631E+01
     -7.680  0.6189E+00  0.1687E+01
     -7.589  0.1002E+01  0.1778E+01
     -7.499  0.1092E+01  0.1877E+01
     -7.408  0.8031E+00  0.1950E+01
     -7.317  0.4208E+00  0.1988E+01
     -7.227  0.2663E+00  0.2012E+01
     -7.136  0.4862E+00  0.2056E+01
     -7.046  0.1037E+01  0.2150E+01
     -6.955  0.1567E+01  0.2292E+01
     -6.864  0.1599E+01  0.2437E+01
     -6.774  0.1097E+01  0.2536E+01
     -6.683  0.5063E+00  0.2582E+01
     -6.592  0.1572E+00  0.2597E+01
     -6.502  0.3544E-01  0.2600E+01
     -6.411  0.2614E-01  0.2602E+01
     -6.321  0.1139E+00  0.2613E+01
     -6.230  0.4010E+00  0.2649E+01
     -6.139  0.9519E+00  0.2735E+01
     -6.049  0.1519E+01  0.2873E+01
     -5.958  0.1630E+01  0.3021E+01
     -5.867  0.1176E+01  0.3127E+01
     -5.777  0.5707E+00  0.3179E+01
     -5.686  0.1861E+00  0.3196E+01
     -5.596  0.4075E-01  0.3199E+01
     -5.505  0.5989E-02  0.3200E+01
     -5.414  0.5904E-03  0.3200E+01
     -5.324  0.3899E-04  0.3200E+01
     -5.233  0.1724E-05  0.3200E+01
     -5.142  0.5100E-07  0.3200E+01
     -5.052  0.1008E-08  0.3200E+01
     -4.961  0.1331E-10  0.3200E+01
     -4.870  0.1169E-12  0.3200E+01
     -4.780  0.7350E-15  0.3200E+01
     -4.689  0.0000E+00  0.3200E+01
     -4.599  0.0000E+00  0.3200E+01
     -4.508  0.0000E+00  0.3200E+01
     -4.417  0.0000E+00  0.3200E+01
     -4.327  0.0000E+00  0.3200E+01
     -4.236  0.0000E+00  0.3200E+01
     -4.145  0.0000E+00  0.3200E+01
     -4.055  0.0000E+00  0.3200E+01
     -3.964  0.0000E+00  0.3200E+01
     -3.874  0.0000E+00  0.3200E+01
     -3.783  0.0000E+00  0.3200E+01
     -3.692  0.0000E+00  0.3200E+01
     -3.602  0.0000E+00  0.3200E+01
     -3.511  0.0000E+00  0.3200E+01
     -3.420  0.0000E+00  0.3200E+01
     -3.330  0.0000E+00  0.3200E+01
     -3.239  0.0000E+00  0.3200E+01
     -3.149  0.0000E+00  0.3200E+01
     -3.058  0.0000E+00  0.3200E+01
     -2.967  0.0000E+00  0.3200E+01
     -2.877  0.0000E+00  0.3200E+01
     -2.786  0.0000E+00  0.3200E+01
     -2.695  0.0000E+00  0.3200E+01
     -2.605  0.0000E+00  0.3200E+01
     -2.514  0.0000E+00  0.3200E+01
     -2.424  0.0000E+00  0.3200E+01
     -2.333  0.2205E-14  0.3200E+01
     -2.242  0.3191E-12  0.3200E+01
     -2.152  0.3040E-10  0.3200E+01
     -2.061  0.1933E-08  0.3200E+01
     -1.970  0.8211E-07  0.3200E+01
     -1.880  0.2332E-05  0.3200E+01
     -1.789  0.4432E-04  0.3200E+01
     -1.699  0.5641E-03  0.3200E+01
     -1.608  0.4812E-02  0.3200E+01
     -1.517  0.2754E-01  0.3203E+01
     -1.427  0.1058E+00  0.3213E+01
     -1.336  0.2732E+00  0.3237E+01
     -1.245  0.4742E+00  0.3280E+01
     -1.155  0.5533E+00  0.3330E+01
     -1.064  0.4342E+00  0.3370E+01
     -0.974  0.2291E+00  0.3391E+01
     -0.883  0.8123E-01  0.3398E+01
     -0.792  0.1935E-01  0.3400E+01
     -0.702  0.3094E-02  0.3400E+01
     -0.611  0.3319E-03  0.3400E+01
     -0.520  0.2619E-04  0.3400E+01
     -0.430  0.5160E-04  0.3400E+01
     -0.339  0.7321E-03  0.3400E+01
     -0.248  0.7132E-02  0.3401E+01
     -0.158  0.4669E-01  0.3405E+01
     -0.067  0.2056E+00  0.3424E+01
      0.023  0.6095E+00  0.3479E+01
      0.114  0.1217E+01  0.3589E+01
      0.205  0.1638E+01  0.3738E+01
      0.295  0.1486E+01  0.3872E+01
      0.386  0.9088E+00  0.3955E+01
      0.477  0.3746E+00  0.3989E+01
      0.567  0.1040E+00  0.3998E+01
      0.658  0.1946E-01  0.4000E+01
      0.748  0.2448E-02  0.4000E+01
      0.839  0.2071E-03  0.4000E+01
      0.930  0.1177E-04  0.4000E+01
      1.020  0.4489E-06  0.4000E+01
      1.111  0.1148E-07  0.4000E+01
      1.202  0.1968E-09  0.4000E+01
      1.292  0.2258E-11  0.4000E+01
      1.383  0.1740E-13  0.4000E+01
      1.473  0.0000E+00  0.4000E+01
      1.564  0.0000E+00  0.4000E+01
      1.655  0.0000E+00  0.4000E+01
      1.745  0.0000E+00  0.4000E+01
      1.836  0.0000E+00  0.4000E+01
      1.927  0.0000E+00  0.4000E+01
      2.017  0.0000E+00  0.4000E+01
      2.108  0.0000E+00  0.4000E+01
      2.198  0.0000E+00  0.4000E+01
