    5    5   10    1
  0.1024000E+03  0.8000000E-09  0.8000000E-09  0.8000000E-09  0.5000000E-15
  1.000000000000000E-004
  CAR 
 unknown system                          
   32    1   20
 
  0.0000000E+00  0.0000000E+00  0.0000000E+00  0.1000000E+01
   1      -22.989816
   2      -19.837282
   3      -19.837282
   4      -19.837282
   5      -14.183120
   6      -10.954301
   7      -10.954301
   8      -10.954301
   9       -7.569836
  10       -7.569836
  11       -6.950272
  12       -6.950272
  13       -6.950272
  14       -6.032535
  15       -6.032535
  16       -6.032535
  17       -1.210137
  18        0.174217
  19        0.174217
  20        0.198465
