<?xml version="1.0" encoding="ISO-8859-1"?>
<modeling>
 <generator>
  <i name="program" type="string">vasp </i>
  <i name="version" type="string">5.2.12  </i>
  <i name="subversion" type="string">11Nov11 complex                                                      parallel </i>
  <i name="platform" type="string">LinuxIFC </i>
  <i name="date" type="string">2012 10 31 </i>
  <i name="time" type="string">21:35:03 </i>
 </generator>
 <incar>
  <i type="string" name="PREC">normal</i>
  <i type="int" name="IBRION">     2</i>
  <i type="int" name="NSW">    10</i>
  <i name="ENCUT">    500.00000000</i>
  <i type="int" name="ISMEAR">     0</i>
 </incar>
 <kpoints>
  <generation param="Monkhorst-Pack">
   <v type="int" name="divisions">       1        1        1 </v>
   <v name="usershift">      0.00000000       0.00000000       0.00000000 </v>
   <v name="genvec1">      1.00000000       0.00000000       0.00000000 </v>
   <v name="genvec2">      0.00000000       1.00000000       0.00000000 </v>
   <v name="genvec3">      0.00000000       0.00000000       1.00000000 </v>
   <v name="shift">      0.00000000       0.00000000       0.00000000 </v>
  </generation>
  <varray name="kpointlist" >
   <v>       0.00000000       0.00000000       0.00000000 </v>
  </varray>
  <varray name="weights" >
   <v>       1.00000000 </v>
  </varray>
 </kpoints>
 <parameters>
  <separator name="general" >
   <i type="string" name="SYSTEM">unknown system</i>
   <i type="logical" name="LCOMPAT"> F  </i>
  </separator>
  <separator name="electronic" >
   <i type="string" name="PREC">normal</i>
   <i name="ENMAX">    500.00000000</i>
   <i name="ENAUG">    644.87300000</i>
   <i name="EDIFF">      0.00010000</i>
   <i type="int" name="IALGO">    38</i>
   <i type="int" name="IWAVPR">    11</i>
   <i type="int" name="NBANDS">    20</i>
   <i name="NELECT">     32.00000000</i>
   <i type="int" name="TURBO">     0</i>
   <i type="int" name="IRESTART">     0</i>
   <i type="int" name="NREBOOT">     0</i>
   <i type="int" name="NMIN">     0</i>
   <i name="EREF">      0.00000000</i>
   <separator name="electronic smearing" >
    <i type="int" name="ISMEAR">     0</i>
    <i name="SIGMA">      0.20000000</i>
    <i name="KSPACING">      0.50000000</i>
    <i type="logical" name="KGAMMA"> T  </i>
   </separator>
   <separator name="electronic projectors" >
    <i type="logical" name="LREAL"> F  </i>
    <v name="ROPT">      0.00000000      0.00000000</v>
    <i type="int" name="LMAXPAW">  -100</i>
    <i type="int" name="LMAXMIX">     2</i>
    <i type="logical" name="NLSPLINE"> F  </i>
   </separator>
   <separator name="electronic startup" >
    <i type="int" name="ISTART">     0</i>
    <i type="int" name="ICHARG">     2</i>
    <i type="int" name="INIWAV">     1</i>
   </separator>
   <separator name="electronic spin" >
    <i type="int" name="ISPIN">     1</i>
    <i type="logical" name="LNONCOLLINEAR"> F  </i>
    <v name="MAGMOM">      1.00000000      1.00000000      1.00000000      1.00000000      1.00000000</v>
    <i name="NUPDOWN">     -1.00000000</i>
    <i type="logical" name="LSORBIT"> F  </i>
    <v name="SAXIS">      0.00000000      0.00000000      1.00000000</v>
    <i type="logical" name="LSPIRAL"> F  </i>
    <v name="QSPIRAL">      0.00000000      0.00000000      0.00000000</v>
    <i type="logical" name="LZEROZ"> F  </i>
   </separator>
   <separator name="electronic exchange-correlation" >
    <i type="logical" name="LASPH"> F  </i>
    <i type="logical" name="LMETAGGA"> F  </i>
   </separator>
   <separator name="electronic convergence" >
    <i type="int" name="NELM">    60</i>
    <i type="int" name="NELMDL">    -5</i>
    <i type="int" name="NELMIN">     2</i>
    <i name="ENINI">    500.00000000</i>
    <separator name="electronic convergence detail" >
     <i type="logical" name="LDIAG"> T  </i>
     <i type="logical" name="LSUBROT"> T  </i>
     <i name="WEIMIN">      0.00100000</i>
     <i name="EBREAK">      0.00000125</i>
     <i name="DEPER">      0.30000000</i>
     <i type="int" name="NRMM">     4</i>
     <i name="TIME">      0.40000000</i>
    </separator>
   </separator>
   <separator name="electronic mixer" >
    <i name="AMIX">      0.40000000</i>
    <i name="BMIX">      1.00000000</i>
    <i name="AMIN">      0.10000000</i>
    <i name="AMIX_MAG">      1.60000000</i>
    <i name="BMIX_MAG">      1.00000000</i>
    <separator name="electronic mixer details" >
     <i type="int" name="IMIX">     4</i>
     <i type="int" name="MAXMIX">   -45</i>
     <i name="WC">    100.00000000</i>
     <i type="int" name="INIMIX">     1</i>
     <i type="int" name="MIXPRE">     1</i>
     <i type="int" name="MREMOVE">     5</i>
    </separator>
   </separator>
   <separator name="electronic dipolcorrection" >
    <i type="logical" name="LDIPOL"> F  </i>
    <i type="logical" name="LMONO"> F  </i>
    <i type="int" name="IDIPOL">     0</i>
    <i name="EPSILON">      1.00000000</i>
    <v name="DIPOL">   -100.00000000   -100.00000000   -100.00000000</v>
    <i name="EFIELD">      0.00000000</i>
   </separator>
  </separator>
  <separator name="grids" >
   <i type="int" name="NGX">    48</i>
   <i type="int" name="NGY">    48</i>
   <i type="int" name="NGZ">    48</i>
   <i type="int" name="NGXF">    96</i>
   <i type="int" name="NGYF">    96</i>
   <i type="int" name="NGZF">    96</i>
   <i type="logical" name="ADDGRID"> F  </i>
  </separator>
  <separator name="ionic" >
   <i type="int" name="NSW">    10</i>
   <i type="int" name="IBRION">     2</i>
   <i type="int" name="ISIF">     2</i>
   <i name="PSTRESS">      0.00000000</i>
   <i name="EDIFFG">      0.00100000</i>
   <i type="int" name="NFREE">     1</i>
   <i name="POTIM">      0.50000000</i>
   <i name="SMASS">     -3.00000000</i>
   <i name="SCALEE">      1.00000000</i>
  </separator>
  <separator name="ionic md" >
   <i name="TEBEG">      0.00010000</i>
   <i name="TEEND">      0.00010000</i>
   <i type="int" name="NBLOCK">     1</i>
   <i type="int" name="KBLOCK">    10</i>
   <i type="int" name="NPACO">   256</i>
   <i name="APACO">     16.00000000</i>
  </separator>
  <separator name="symmetry" >
   <i type="int" name="ISYM">     2</i>
   <i name="SYMPREC">      0.00001000</i>
  </separator>
  <separator name="dos" >
   <i type="logical" name="LORBIT"> F  </i>
   <v name="RWIGS">     -1.00000000     -1.00000000</v>
   <i type="int" name="NEDOS">   301</i>
   <i name="EMIN">     10.00000000</i>
   <i name="EMAX">    -10.00000000</i>
   <i name="EFERMI">      0.00000000</i>
  </separator>
  <separator name="writing" >
   <i type="int" name="NWRITE">     2</i>
   <i type="logical" name="LWAVE"> T  </i>
   <i type="logical" name="LCHARG"> T  </i>
   <i type="logical" name="LPARD"> F  </i>
   <i type="logical" name="LVTOT"> F  </i>
   <i type="logical" name="LVHAR"> F  </i>
   <i type="logical" name="LELF"> F  </i>
   <i type="logical" name="LOPTICS"> F  </i>
   <v name="STM">      0.00000000      0.00000000      0.00000000      0.00000000      0.00000000      0.00000000      0.00000000</v>
  </separator>
  <separator name="performance" >
   <i type="int" name="NPAR">     1</i>
   <i type="int" name="NSIM">     4</i>
   <i type="int" name="NBLK">    -1</i>
   <i type="logical" name="LPLANE"> T  </i>
   <i type="logical" name="LSCALAPACK"> F  </i>
   <i type="logical" name="LSCAAWARE"> F  </i>
   <i type="logical" name="LSCALU"> F  </i>
   <i type="logical" name="LASYNC"> F  </i>
   <i type="logical" name="LORBITALREAL"> F  </i>
  </separator>
  <separator name="miscellaneous" >
   <i type="int" name="IDIOT">     3</i>
   <i type="logical" name="LMUSIC"> F  </i>
   <v name="POMASS">     12.01100000     35.45300000</v>
   <v name="DARWINR">      0.00000000      0.00000000</v>
   <v name="DARWINV">      1.00000000      1.00000000</v>
   <i type="logical" name="LCORR"> T  </i>
  </separator>
  <i type="logical" name="GGA_COMPAT"> T  </i>
  <i type="logical" name="LBERRY"> F  </i>
  <i type="int" name="ICORELEVEL">     0</i>
  <i type="logical" name="LDAU"> F  </i>
  <i type="int" name="I_CONSTRAINED_M">     0</i>
  <separator name="electronic exchange-correlation" >
   <i type="string" name="GGA">--</i>
   <i type="int" name="VOSKOWN">     0</i>
   <i type="logical" name="LHFCALC"> F  </i>
   <i type="string" name="PRECFOCK"></i>
   <i type="logical" name="LHFONE"> F  </i>
   <i type="logical" name="LRHFCALC"> F  </i>
   <i type="logical" name="LTHOMAS"> F  </i>
   <i type="logical" name="LMODELHF"> F  </i>
   <i name="ENCUT4O">     -1.00000000</i>
   <i type="int" name="EXXOEP">     0</i>
   <i type="int" name="FOURORBIT">     0</i>
   <i name="AEXX">      0.00000000</i>
   <i name="HFALPHA">      0.00000000</i>
   <i name="ALDAX">      1.00000000</i>
   <i name="AGGAX">      1.00000000</i>
   <i name="ALDAC">      1.00000000</i>
   <i name="AGGAC">      1.00000000</i>
   <i type="int" name="NKREDX">     1</i>
   <i type="int" name="NKREDY">     1</i>
   <i type="int" name="NKREDZ">     1</i>
   <i type="logical" name="SHIFTRED"> F  </i>
   <i type="logical" name="ODDONLY"> F  </i>
   <i type="logical" name="EVENONLY"> F  </i>
   <i type="int" name="LMAXFOCK">     0</i>
   <i type="int" name="NMAXFOCKAE">     0</i>
   <i type="logical" name="LFOCKAEDFT"> F  </i>
   <i name="HFSCREEN">      0.00000000</i>
   <i name="HFSCREENC">      0.00000000</i>
  </separator>
  <separator name="vdW DFT" >
   <i type="logical" name="LUSE_VDW"> F  </i>
   <i name="Zab_VDW">     -0.84910000</i>
   <i name="PARAM1">      0.12340000</i>
   <i name="PARAM2">      1.00000000</i>
   <i name="PARAM3">      0.00000000</i>
  </separator>
  <separator name="model GW" >
   <i type="int" name="MODEL_GW">     0</i>
   <i name="MODEL_EPS0">     61.44000000</i>
   <i name="MODEL_ALPHA">      1.00000000</i>
  </separator>
  <separator name="linear response parameters" >
   <i type="logical" name="LEPSILON"> F  </i>
   <i type="logical" name="LRPA"> F  </i>
   <i type="logical" name="LNABLA"> F  </i>
   <i type="logical" name="LVEL"> F  </i>
   <i type="int" name="KINTER">     0</i>
   <i name="CSHIFT">      0.10000000</i>
   <i name="OMEGAMAX">     -1.00000000</i>
  </separator>
  <separator name="orbital magnetization" >
   <i type="logical" name="NUCIND"> F  </i>
   <v name="MAGPOS">      0.00000000      0.00000000      0.00000000</v>
   <i type="logical" name="LNICSALL"> T  </i>
   <i type="logical" name="ORBITALMAG"> F  </i>
   <i type="logical" name="LMAGBLOCH"> F  </i>
   <i type="logical" name="LCHIMAG"> F  </i>
   <i type="logical" name="LGAUGE"> T  </i>
   <i type="int" name="MAGATOM">     0</i>
   <v name="MAGDIPOL">      0.00000000      0.00000000      0.00000000</v>
   <v name="AVECCONST">      0.00000000      0.00000000      0.00000000</v>
  </separator>
  <separator name="response functions" >
   <i type="logical" name="LADDER"> F  </i>
   <i type="logical" name="LHARTREE"> T  </i>
   <i type="int" name="IBSE">     0</i>
   <i type="logical" name="LTCTE"> F  </i>
   <i type="logical" name="LTETE"> F  </i>
   <i type="logical" name="LFXCEPS"> F  </i>
   <i type="logical" name="L2ORDER"> F  </i>
   <i type="logical" name="LUSEW"> F  </i>
   <i name="ENCUTGW">     -2.00000000</i>
   <i name="ENCUTGWSOFT">     -2.00000000</i>
   <i name="ENCUTLF">     -1.00000000</i>
   <i type="int" name="LMAXMP2">    -1</i>
   <i name="SCISSOR">      0.00000000</i>
   <i type="int" name="NOMEGA">     0</i>
   <i type="int" name="NOMEGAR">     0</i>
   <i type="int" name="NBANDSGW">    -1</i>
   <i type="int" name="NBANDSO">    -1</i>
   <i type="int" name="NBANDSV">    -1</i>
   <i name="OPTEMAX">      0.00000000</i>
   <i type="int" name="NELM">     1</i>
   <i type="int" name="DIM">     3</i>
   <i type="int" name="ANTIRES">     0</i>
   <i name="OMEGAMAX">    -30.00000000</i>
   <i name="OMEGATL">   -200.00000000</i>
   <i type="int" name="OMEGAGRID">     0</i>
   <i name="CSHIFT">     -0.10000000</i>
   <i type="logical" name="SELFENERGY"> F  </i>
   <i type="logical" name="LSPECTRAL"> F  </i>
   <i type="logical" name="ODDONLYGW"> F  </i>
   <i type="logical" name="EVENONLYGW"> F  </i>
   <i type="int" name="NKREDLFX">     1</i>
   <i type="int" name="NKREDLFY">     1</i>
   <i type="int" name="NKREDLFZ">     1</i>
   <i type="int" name="MAXMEM">  1800</i>
   <i type="int" name="TELESCOPE">     0</i>
  </separator>
 </parameters>
 <atominfo>
  <atoms>       5 </atoms>
  <types>       2 </types>
  <array name="atoms" >
   <dimension dim="1">ion</dimension>
   <field type="string">element</field>
   <field type="int">atomtype</field>
   <set>
    <rc><c>C </c><c>   1</c></rc>
    <rc><c>Cl</c><c>   2</c></rc>
    <rc><c>Cl</c><c>   2</c></rc>
    <rc><c>Cl</c><c>   2</c></rc>
    <rc><c>Cl</c><c>   2</c></rc>
   </set>
  </array>
  <array name="atomtypes" >
   <dimension dim="1">type</dimension>
   <field type="int">atomspertype</field>
   <field type="string">element</field>
   <field>mass</field>
   <field>valence</field>
   <field type="string">pseudopotential</field>
   <set>
    <rc><c>   1</c><c>C </c><c>     12.01100000</c><c>      4.00000000</c><c> PAW_PBE C 08Apr2002                    </c></rc>
    <rc><c>   4</c><c>Cl</c><c>     35.45300000</c><c>      7.00000000</c><c>  PAW_PBE Cl 17Jan2003                  </c></rc>
   </set>
  </array>
 </atominfo>
 <structure name="initialpos" >
  <crystal>
   <varray name="basis" >
    <v>       8.00000000       0.00000000       0.00000000 </v>
    <v>       0.00000000       8.00000000       0.00000000 </v>
    <v>       0.00000000       0.00000000       8.00000000 </v>
   </varray>
   <i name="volume">    512.00000000 </i>
   <varray name="rec_basis" >
    <v>       0.12500000       0.00000000       0.00000000 </v>
    <v>       0.00000000       0.12500000       0.00000000 </v>
    <v>       0.00000000       0.00000000       0.12500000 </v>
   </varray>
  </crystal>
  <varray name="positions" >
   <v>       0.00000000       0.00000000       0.00000000 </v>
   <v>       0.12766750       0.12766750       0.12766750 </v>
   <v>       0.87233250       0.87233250       0.12766750 </v>
   <v>       0.87233250       0.12766750       0.87233250 </v>
   <v>       0.12766750       0.87233250       0.87233250 </v>
  </varray>
 </structure>
 <calculation>
  <scstep>
   <time name="dav">    1.64    1.64</time>
   <time name="total">    3.24    3.27</time>
   <energy>
    <i name="alphaZ">      8.81598031 </i>
    <i name="ewald">    -81.24181609 </i>
    <i name="hartreedc">  -1444.11011375 </i>
    <i name="XCdc">     93.80982256 </i>
    <i name="pawpsdc">    831.83787413 </i>
    <i name="pawaedc">   -833.44360687 </i>
    <i name="eentropy">     -0.16814248 </i>
    <i name="bandstr">    -47.36906012 </i>
    <i name="atom">   1786.03996263 </i>
    <i name="e_fr_energy">    314.17090031 </i>
    <i name="e_wo_entrp">    314.33904278 </i>
    <i name="e_0_energy">    314.25497155 </i>
   </energy>
  </scstep>
  <scstep>
   <time name="dav">    2.25    2.25</time>
   <time name="total">    2.25    2.30</time>
   <energy>
    <i name="e_fr_energy">     48.46017953 </i>
    <i name="e_wo_entrp">     48.46017953 </i>
    <i name="e_0_energy">     48.46017953 </i>
   </energy>
  </scstep>
  <scstep>
   <time name="dav">    1.75    1.75</time>
   <time name="total">    1.75    1.77</time>
   <energy>
    <i name="e_fr_energy">    -15.56108935 </i>
    <i name="e_wo_entrp">    -15.56108935 </i>
    <i name="e_0_energy">    -15.56108935 </i>
   </energy>
  </scstep>
  <scstep>
   <time name="dav">    1.87    1.87</time>
   <time name="total">    1.87    1.88</time>
   <energy>
    <i name="e_fr_energy">    -17.53555156 </i>
    <i name="e_wo_entrp">    -17.53555156 </i>
    <i name="e_0_energy">    -17.53555156 </i>
   </energy>
  </scstep>
  <scstep>
   <time name="dav">    2.34    2.34</time>
   <time name="total">    2.71    2.80</time>
   <energy>
    <i name="e_fr_energy">    -17.60896295 </i>
    <i name="e_wo_entrp">    -17.60896295 </i>
    <i name="e_0_energy">    -17.60896295 </i>
   </energy>
  </scstep>
  <scstep>
   <time name="dav">    1.80    1.80</time>
   <time name="total">    3.84    3.86</time>
   <energy>
    <i name="e_fr_energy">    -17.36472943 </i>
    <i name="e_wo_entrp">    -17.36472943 </i>
    <i name="e_0_energy">    -17.36472943 </i>
   </energy>
  </scstep>
  <scstep>
   <time name="dav">    2.09    2.09</time>
   <time name="total">    4.32    4.33</time>
   <energy>
    <i name="e_fr_energy">    -17.28590652 </i>
    <i name="e_wo_entrp">    -17.28590652 </i>
    <i name="e_0_energy">    -17.28590652 </i>
   </energy>
  </scstep>
  <scstep>
   <time name="dav">    2.33    2.33</time>
   <time name="total">    4.54    4.57</time>
   <energy>
    <i name="e_fr_energy">    -17.28652364 </i>
    <i name="e_wo_entrp">    -17.28652364 </i>
    <i name="e_0_energy">    -17.28652364 </i>
   </energy>
  </scstep>
  <scstep>
   <time name="dav">    1.78    1.78</time>
   <time name="total">    3.98    4.00</time>
   <energy>
    <i name="e_fr_energy">    -17.28762776 </i>
    <i name="e_wo_entrp">    -17.28762776 </i>
    <i name="e_0_energy">    -17.28762776 </i>
   </energy>
  </scstep>
  <scstep>
   <time name="dav">    1.39    1.39</time>
   <time name="total">    3.58    3.66</time>
   <energy>
    <i name="e_fr_energy">    -17.28866901 </i>
    <i name="e_wo_entrp">    -17.28866901 </i>
    <i name="e_0_energy">    -17.28866901 </i>
   </energy>
  </scstep>
  <scstep>
   <time name="dav">    1.44    1.44</time>
   <time name="total">    3.47    3.48</time>
   <energy>
    <i name="e_fr_energy">    -17.28935907 </i>
    <i name="e_wo_entrp">    -17.28935907 </i>
    <i name="e_0_energy">    -17.28935907 </i>
   </energy>
  </scstep>
  <scstep>
   <time name="dav">    1.43    1.43</time>
   <time name="total">    3.46    3.58</time>
   <energy>
    <i name="e_fr_energy">    -17.29003049 </i>
    <i name="e_wo_entrp">    -17.29003049 </i>
    <i name="e_0_energy">    -17.29003049 </i>
   </energy>
  </scstep>
  <scstep>
   <time name="dav">    1.45    1.45</time>
   <time name="total">    3.10    3.12</time>
   <energy>
    <i name="alphaZ">      8.81598031 </i>
    <i name="ewald">    -81.24181609 </i>
    <i name="hartreedc">  -1455.68840994 </i>
    <i name="XCdc">     94.76473313 </i>
    <i name="pawpsdc">    905.57304387 </i>
    <i name="pawaedc">   -907.73228963 </i>
    <i name="eentropy">      0.00000000 </i>
    <i name="bandstr">   -367.82129096 </i>
    <i name="atom">   1786.03996263 </i>
    <i name="e_fr_energy">    -17.29008668 </i>
    <i name="e_wo_entrp">    -17.29008668 </i>
    <i name="e_0_energy">    -17.29008668 </i>
   </energy>
  </scstep>
  <parameters_embedded>
   <separator name="dft+d2" >
    <i type="logical" name="LVDW"> F  </i>
   </separator>
  </parameters_embedded>
  <structure>
   <crystal>
    <varray name="basis" >
     <v>       8.00000000       0.00000000       0.00000000 </v>
     <v>       0.00000000       8.00000000       0.00000000 </v>
     <v>       0.00000000       0.00000000       8.00000000 </v>
    </varray>
    <i name="volume">    512.00000000 </i>
    <varray name="rec_basis" >
     <v>       0.12500000       0.00000000       0.00000000 </v>
     <v>       0.00000000       0.12500000       0.00000000 </v>
     <v>       0.00000000       0.00000000       0.12500000 </v>
    </varray>
   </crystal>
   <varray name="positions" >
    <v>       0.00000000       0.00000000       0.00000000 </v>
    <v>       0.12766750       0.12766750       0.12766750 </v>
    <v>       0.87233250       0.87233250       0.12766750 </v>
    <v>       0.87233250       0.12766750       0.87233250 </v>
    <v>       0.12766750       0.87233250       0.87233250 </v>
   </varray>
  </structure>
  <varray name="forces" >
   <v>       0.00000000       0.00000000       0.00000000 </v>
   <v>       0.11716073       0.11716073       0.11716073 </v>
   <v>      -0.11716073      -0.11716073       0.11716073 </v>
   <v>      -0.11716073       0.11716073      -0.11716073 </v>
   <v>       0.11716073      -0.11716073      -0.11716073 </v>
  </varray>
  <varray name="stress" >
   <v>       1.29717366       0.00000000       0.00000000 </v>
   <v>       0.00000000       1.29717366       0.00000000 </v>
   <v>       0.00000000       0.00000000       1.29717366 </v>
  </varray>
  <energy>
   <i name="e_fr_energy">    -17.29008668 </i>
   <i name="e_wo_entrp">    -17.29008668 </i>
   <i name="e_0_energy">      0.00000000 </i>
  </energy>
  <time name="totalsc">   49.61   50.33</time>
 </calculation>
 <calculation>
  <scstep>
   <time name="dav">    1.87    1.87</time>
   <time name="total">    3.91    3.91</time>
   <energy>
    <i name="alphaZ">      8.81598031 </i>
    <i name="ewald">    -92.69355626 </i>
    <i name="hartreedc">  -1445.28292530 </i>
    <i name="XCdc">     94.63928993 </i>
    <i name="pawpsdc">    905.56966496 </i>
    <i name="pawaedc">   -907.72864628 </i>
    <i name="eentropy">      0.00000000 </i>
    <i name="bandstr">   -366.65059233 </i>
    <i name="atom">   1786.03996263 </i>
    <i name="e_fr_energy">    -17.29082233 </i>
    <i name="e_wo_entrp">    -17.29082233 </i>
    <i name="e_0_energy">    -17.29082233 </i>
   </energy>
  </scstep>
  <scstep>
   <time name="dav">    1.88    1.88</time>
   <time name="total">    3.67    3.71</time>
   <energy>
    <i name="e_fr_energy">    -17.29328885 </i>
    <i name="e_wo_entrp">    -17.29328885 </i>
    <i name="e_0_energy">    -17.29328885 </i>
   </energy>
  </scstep>
  <scstep>
   <time name="dav">    1.90    1.90</time>
   <time name="total">    3.47    3.50</time>
   <energy>
    <i name="alphaZ">      8.81598031 </i>
    <i name="ewald">    -92.69355626 </i>
    <i name="hartreedc">  -1444.85060147 </i>
    <i name="XCdc">     94.63054374 </i>
    <i name="pawpsdc">    903.79810595 </i>
    <i name="pawaedc">   -905.94283764 </i>
    <i name="eentropy">      0.00000000 </i>
    <i name="bandstr">   -367.09079330 </i>
    <i name="atom">   1786.03996263 </i>
    <i name="e_fr_energy">    -17.29319606 </i>
    <i name="e_wo_entrp">    -17.29319606 </i>
    <i name="e_0_energy">    -17.29319606 </i>
   </energy>
  </scstep>
  <structure>
   <crystal>
    <varray name="basis" >
     <v>       8.00000000       0.00000000       0.00000000 </v>
     <v>       0.00000000       8.00000000       0.00000000 </v>
     <v>       0.00000000       0.00000000       8.00000000 </v>
    </varray>
    <i name="volume">    512.00000000 </i>
    <varray name="rec_basis" >
     <v>       0.12500000       0.00000000       0.00000000 </v>
     <v>       0.00000000       0.12500000       0.00000000 </v>
     <v>       0.00000000       0.00000000       0.12500000 </v>
    </varray>
   </crystal>
   <varray name="positions" >
    <v>       0.00000000       0.00000000       0.00000000 </v>
    <v>       0.12837402       0.12837402       0.12837402 </v>
    <v>       0.87162598       0.87162598       0.12837402 </v>
    <v>       0.87162598       0.12837402       0.87162598 </v>
    <v>       0.12837402       0.87162598       0.87162598 </v>
   </varray>
  </structure>
  <varray name="forces" >
   <v>       0.00000000       0.00000000       0.00000000 </v>
   <v>      -0.02503131      -0.02503131      -0.02503131 </v>
   <v>       0.02503131       0.02503131      -0.02503131 </v>
   <v>       0.02503131      -0.02503131       0.02503131 </v>
   <v>      -0.02503131       0.02503131       0.02503131 </v>
  </varray>
  <varray name="stress" >
   <v>      -0.79792011       0.00000000       0.00000000 </v>
   <v>       0.00000000      -0.79792011       0.00000000 </v>
   <v>       0.00000000       0.00000000      -0.79792011 </v>
  </varray>
  <energy>
   <i name="e_fr_energy">    -17.29319606 </i>
   <i name="e_wo_entrp">    -17.29319606 </i>
   <i name="e_0_energy">      0.00000000 </i>
  </energy>
  <time name="totalsc">   16.28   16.42</time>
 </calculation>
 <calculation>
  <scstep>
   <time name="dav">    1.88    1.88</time>
   <time name="total">    3.63    3.64</time>
   <energy>
    <i name="alphaZ">      8.81598031 </i>
    <i name="ewald">    -90.68854273 </i>
    <i name="hartreedc">  -1446.64651154 </i>
    <i name="XCdc">     94.65115021 </i>
    <i name="pawpsdc">    903.24488807 </i>
    <i name="pawaedc">   -905.38362116 </i>
    <i name="eentropy">      0.00000000 </i>
    <i name="bandstr">   -367.32654472 </i>
    <i name="atom">   1786.03996263 </i>
    <i name="e_fr_energy">    -17.29323893 </i>
    <i name="e_wo_entrp">    -17.29323893 </i>
    <i name="e_0_energy">    -17.29323893 </i>
   </energy>
  </scstep>
  <scstep>
   <time name="dav">    1.88    1.88</time>
   <time name="total">    3.64    3.68</time>
   <energy>
    <i name="e_fr_energy">    -17.29335088 </i>
    <i name="e_wo_entrp">    -17.29335088 </i>
    <i name="e_0_energy">    -17.29335088 </i>
   </energy>
  </scstep>
  <scstep>
   <time name="dav">    1.43    1.43</time>
   <time name="total">    2.83    2.84</time>
   <energy>
    <i name="alphaZ">      8.81598031 </i>
    <i name="ewald">    -90.68854273 </i>
    <i name="hartreedc">  -1446.70324249 </i>
    <i name="XCdc">     94.65210928 </i>
    <i name="pawpsdc">    903.25242526 </i>
    <i name="pawaedc">   -905.39048123 </i>
    <i name="eentropy">      0.00000000 </i>
    <i name="bandstr">   -367.27155921 </i>
    <i name="atom">   1786.03996263 </i>
    <i name="e_fr_energy">    -17.29334819 </i>
    <i name="e_wo_entrp">    -17.29334819 </i>
    <i name="e_0_energy">    -17.29334819 </i>
   </energy>
  </scstep>
  <structure>
   <crystal>
    <varray name="basis" >
     <v>       8.00000000       0.00000000       0.00000000 </v>
     <v>       0.00000000       8.00000000       0.00000000 </v>
     <v>       0.00000000       0.00000000       8.00000000 </v>
    </varray>
    <i name="volume">    512.00000000 </i>
    <varray name="rec_basis" >
     <v>       0.12500000       0.00000000       0.00000000 </v>
     <v>       0.00000000       0.12500000       0.00000000 </v>
     <v>       0.00000000       0.00000000       0.12500000 </v>
    </varray>
   </crystal>
   <varray name="positions" >
    <v>       0.00000000       0.00000000       0.00000000 </v>
    <v>       0.12824964       0.12824964       0.12824964 </v>
    <v>       0.87175036       0.87175036       0.12824964 </v>
    <v>       0.87175036       0.12824964       0.87175036 </v>
    <v>       0.12824964       0.87175036       0.87175036 </v>
   </varray>
  </structure>
  <varray name="forces" >
   <v>       0.00000000       0.00000000       0.00000000 </v>
   <v>      -0.00348454      -0.00348454      -0.00348454 </v>
   <v>       0.00348454       0.00348454      -0.00348454 </v>
   <v>       0.00348454      -0.00348454       0.00348454 </v>
   <v>      -0.00348454       0.00348454       0.00348454 </v>
  </varray>
  <varray name="stress" >
   <v>      -0.23664896       0.00000000       0.00000000 </v>
   <v>       0.00000000      -0.23664896       0.00000000 </v>
   <v>       0.00000000       0.00000000      -0.23664896 </v>
  </varray>
  <energy>
   <i name="e_fr_energy">    -17.29334819 </i>
   <i name="e_wo_entrp">    -17.29334819 </i>
   <i name="e_0_energy">      0.00000000 </i>
  </energy>
  <time name="totalsc">   14.84   15.03</time>
  <eigenvalues>
   <array>
    <dimension dim="1">band</dimension>
    <dimension dim="2">kpoint</dimension>
    <dimension dim="3">spin</dimension>
    <field>eigene</field>
    <field>occ</field>
    <set>
     <set comment="spin 1">
      <set comment="kpoint 1">
       <r>  -22.9898    1.0000 </r>
       <r>  -19.8373    1.0000 </r>
       <r>  -19.8373    1.0000 </r>
       <r>  -19.8373    1.0000 </r>
       <r>  -14.1831    1.0000 </r>
       <r>  -10.9543    1.0000 </r>
       <r>  -10.9543    1.0000 </r>
       <r>  -10.9543    1.0000 </r>
       <r>   -7.5698    1.0000 </r>
       <r>   -7.5698    1.0000 </r>
       <r>   -6.9503    1.0000 </r>
       <r>   -6.9503    1.0000 </r>
       <r>   -6.9503    1.0000 </r>
       <r>   -6.0325    1.0000 </r>
       <r>   -6.0325    1.0000 </r>
       <r>   -6.0325    1.0000 </r>
       <r>   -1.2101    0.0000 </r>
       <r>    0.1742    0.0000 </r>
       <r>    0.1742    0.0000 </r>
       <r>    0.1985    0.0000 </r>
      </set>
     </set>
    </set>
   </array>
  </eigenvalues>
  <separator name="orbital magnetization" >
   <v name="MAGDIPOLOUT">      0.00000000      0.00000000      0.00000000</v>
  </separator>
  <dos>
   <i name="efermi">     -5.05138957 </i>
   <total>
    <array>
     <dimension dim="1">gridpoints</dimension>
     <dimension dim="2">spin</dimension>
     <field>energy</field>
     <field>total</field>
     <field>integrated</field>
     <set>
      <set comment="spin 1">
       <r>   -24.9898     0.0000     0.0000 </r>
       <r>   -24.8992     0.0000     0.0000 </r>
       <r>   -24.8086     0.0000     0.0000 </r>
       <r>   -24.7179     0.0000     0.0000 </r>
       <r>   -24.6273     0.0000     0.0000 </r>
       <r>   -24.5367     0.0000     0.0000 </r>
       <r>   -24.4461     0.0000     0.0000 </r>
       <r>   -24.3554     0.0000     0.0000 </r>
       <r>   -24.2648     0.0000     0.0000 </r>
       <r>   -24.1742     0.0000     0.0000 </r>
       <r>   -24.0835     0.0000     0.0000 </r>
       <r>   -23.9929     0.0000     0.0000 </r>
       <r>   -23.9023     0.0000     0.0000 </r>
       <r>   -23.8117     0.0000     0.0000 </r>
       <r>   -23.7210     0.0000     0.0000 </r>
       <r>   -23.6304     0.0001     0.0000 </r>
       <r>   -23.5398     0.0010     0.0001 </r>
       <r>   -23.4491     0.0117     0.0012 </r>
       <r>   -23.3585     0.0879     0.0091 </r>
       <r>   -23.2679     0.4428     0.0493 </r>
       <r>   -23.1773     1.4979     0.1850 </r>
       <r>   -23.0866     3.4047     0.4936 </r>
       <r>   -22.9960     5.2025     0.9651 </r>
       <r>   -22.9054     5.3455     1.4495 </r>
       <r>   -22.8148     3.6933     1.7842 </r>
       <r>   -22.7241     1.7156     1.9397 </r>
       <r>   -22.6335     0.5355     1.9882 </r>
       <r>   -22.5429     0.1123     1.9984 </r>
       <r>   -22.4522     0.0158     1.9999 </r>
       <r>   -22.3616     0.0015     2.0000 </r>
       <r>   -22.2710     0.0001     2.0000 </r>
       <r>   -22.1804     0.0000     2.0000 </r>
       <r>   -22.0897     0.0000     2.0000 </r>
       <r>   -21.9991     0.0000     2.0000 </r>
       <r>   -21.9085     0.0000     2.0000 </r>
       <r>   -21.8179     0.0000     2.0000 </r>
       <r>   -21.7272     0.0000     2.0000 </r>
       <r>   -21.6366     0.0000     2.0000 </r>
       <r>   -21.5460     0.0000     2.0000 </r>
       <r>   -21.4553     0.0000     2.0000 </r>
       <r>   -21.3647     0.0000     2.0000 </r>
       <r>   -21.2741     0.0000     2.0000 </r>
       <r>   -21.1835     0.0000     2.0000 </r>
       <r>   -21.0928     0.0000     2.0000 </r>
       <r>   -21.0022     0.0000     2.0000 </r>
       <r>   -20.9116     0.0000     2.0000 </r>
       <r>   -20.8209     0.0000     2.0000 </r>
       <r>   -20.7303     0.0000     2.0000 </r>
       <r>   -20.6397     0.0000     2.0000 </r>
       <r>   -20.5491     0.0000     2.0000 </r>
       <r>   -20.4584     0.0004     2.0000 </r>
       <r>   -20.3678     0.0054     2.0005 </r>
       <r>   -20.2772     0.0560     2.0056 </r>
       <r>   -20.1866     0.3858     2.0406 </r>
       <r>   -20.0959     1.7840     2.2022 </r>
       <r>   -20.0053     5.5412     2.7044 </r>
       <r>   -19.9147    11.5665     3.7527 </r>
       <r>   -19.8240    16.2320     5.2238 </r>
       <r>   -19.7334    15.3178     6.6120 </r>
       <r>   -19.6428     9.7199     7.4929 </r>
       <r>   -19.5522     4.1463     7.8686 </r>
       <r>   -19.4615     1.1885     7.9763 </r>
       <r>   -19.3709     0.2288     7.9971 </r>
       <r>   -19.2803     0.0295     7.9998 </r>
       <r>   -19.1896     0.0026     8.0000 </r>
       <r>   -19.0990     0.0001     8.0000 </r>
       <r>   -19.0084     0.0000     8.0000 </r>
       <r>   -18.9178     0.0000     8.0000 </r>
       <r>   -18.8271     0.0000     8.0000 </r>
       <r>   -18.7365     0.0000     8.0000 </r>
       <r>   -18.6459     0.0000     8.0000 </r>
       <r>   -18.5553     0.0000     8.0000 </r>
       <r>   -18.4646     0.0000     8.0000 </r>
       <r>   -18.3740     0.0000     8.0000 </r>
       <r>   -18.2834     0.0000     8.0000 </r>
       <r>   -18.1927     0.0000     8.0000 </r>
       <r>   -18.1021     0.0000     8.0000 </r>
       <r>   -18.0115     0.0000     8.0000 </r>
       <r>   -17.9209     0.0000     8.0000 </r>
       <r>   -17.8302     0.0000     8.0000 </r>
       <r>   -17.7396     0.0000     8.0000 </r>
       <r>   -17.6490     0.0000     8.0000 </r>
       <r>   -17.5584     0.0000     8.0000 </r>
       <r>   -17.4677     0.0000     8.0000 </r>
       <r>   -17.3771     0.0000     8.0000 </r>
       <r>   -17.2865     0.0000     8.0000 </r>
       <r>   -17.1958     0.0000     8.0000 </r>
       <r>   -17.1052     0.0000     8.0000 </r>
       <r>   -17.0146     0.0000     8.0000 </r>
       <r>   -16.9240     0.0000     8.0000 </r>
       <r>   -16.8333     0.0000     8.0000 </r>
       <r>   -16.7427     0.0000     8.0000 </r>
       <r>   -16.6521     0.0000     8.0000 </r>
       <r>   -16.5614     0.0000     8.0000 </r>
       <r>   -16.4708     0.0000     8.0000 </r>
       <r>   -16.3802     0.0000     8.0000 </r>
       <r>   -16.2896     0.0000     8.0000 </r>
       <r>   -16.1989     0.0000     8.0000 </r>
       <r>   -16.1083     0.0000     8.0000 </r>
       <r>   -16.0177     0.0000     8.0000 </r>
       <r>   -15.9271     0.0000     8.0000 </r>
       <r>   -15.8364     0.0000     8.0000 </r>
       <r>   -15.7458     0.0000     8.0000 </r>
       <r>   -15.6552     0.0000     8.0000 </r>
       <r>   -15.5645     0.0000     8.0000 </r>
       <r>   -15.4739     0.0000     8.0000 </r>
       <r>   -15.3833     0.0000     8.0000 </r>
       <r>   -15.2927     0.0000     8.0000 </r>
       <r>   -15.2020     0.0000     8.0000 </r>
       <r>   -15.1114     0.0000     8.0000 </r>
       <r>   -15.0208     0.0000     8.0000 </r>
       <r>   -14.9302     0.0000     8.0000 </r>
       <r>   -14.8395     0.0000     8.0000 </r>
       <r>   -14.7489     0.0007     8.0001 </r>
       <r>   -14.6583     0.0079     8.0008 </r>
       <r>   -14.5676     0.0636     8.0065 </r>
       <r>   -14.4770     0.3437     8.0377 </r>
       <r>   -14.3864     1.2461     8.1506 </r>
       <r>   -14.2958     3.0358     8.4258 </r>
       <r>   -14.2051     4.9715     8.8763 </r>
       <r>   -14.1145     5.4745     9.3725 </r>
       <r>   -14.0239     4.0538     9.7398 </r>
       <r>   -13.9332     2.0182     9.9227 </r>
       <r>   -13.8426     0.6753     9.9839 </r>
       <r>   -13.7520     0.1518     9.9977 </r>
       <r>   -13.6614     0.0229     9.9998 </r>
       <r>   -13.5707     0.0023    10.0000 </r>
       <r>   -13.4801     0.0002    10.0000 </r>
       <r>   -13.3895     0.0000    10.0000 </r>
       <r>   -13.2989     0.0000    10.0000 </r>
       <r>   -13.2082     0.0000    10.0000 </r>
       <r>   -13.1176     0.0000    10.0000 </r>
       <r>   -13.0270     0.0000    10.0000 </r>
       <r>   -12.9363     0.0000    10.0000 </r>
       <r>   -12.8457     0.0000    10.0000 </r>
       <r>   -12.7551     0.0000    10.0000 </r>
       <r>   -12.6645     0.0000    10.0000 </r>
       <r>   -12.5738     0.0000    10.0000 </r>
       <r>   -12.4832     0.0000    10.0000 </r>
       <r>   -12.3926     0.0000    10.0000 </r>
       <r>   -12.3020     0.0000    10.0000 </r>
       <r>   -12.2113     0.0000    10.0000 </r>
       <r>   -12.1207     0.0000    10.0000 </r>
       <r>   -12.0301     0.0000    10.0000 </r>
       <r>   -11.9394     0.0000    10.0000 </r>
       <r>   -11.8488     0.0000    10.0000 </r>
       <r>   -11.7582     0.0000    10.0000 </r>
       <r>   -11.6676     0.0000    10.0000 </r>
       <r>   -11.5769     0.0003    10.0000 </r>
       <r>   -11.4863     0.0052    10.0005 </r>
       <r>   -11.3957     0.0541    10.0054 </r>
       <r>   -11.3050     0.3751    10.0394 </r>
       <r>   -11.2144     1.7457    10.1976 </r>
       <r>   -11.1238     5.4572    10.6922 </r>
       <r>   -11.0332    11.4651    11.7312 </r>
       <r>   -10.9425    16.1941    13.1989 </r>
       <r>   -10.8519    15.3811    14.5928 </r>
       <r>   -10.7613     9.8234    15.4831 </r>
       <r>   -10.6707     4.2176    15.8653 </r>
       <r>   -10.5800     1.2168    15.9756 </r>
       <r>   -10.4894     0.2357    15.9970 </r>
       <r>   -10.3988     0.0306    15.9997 </r>
       <r>   -10.3081     0.0027    16.0000 </r>
       <r>   -10.2175     0.0002    16.0000 </r>
       <r>   -10.1269     0.0000    16.0000 </r>
       <r>   -10.0363     0.0000    16.0000 </r>
       <r>    -9.9456     0.0000    16.0000 </r>
       <r>    -9.8550     0.0000    16.0000 </r>
       <r>    -9.7644     0.0000    16.0000 </r>
       <r>    -9.6738     0.0000    16.0000 </r>
       <r>    -9.5831     0.0000    16.0000 </r>
       <r>    -9.4925     0.0000    16.0000 </r>
       <r>    -9.4019     0.0000    16.0000 </r>
       <r>    -9.3112     0.0000    16.0000 </r>
       <r>    -9.2206     0.0000    16.0000 </r>
       <r>    -9.1300     0.0000    16.0000 </r>
       <r>    -9.0394     0.0000    16.0000 </r>
       <r>    -8.9487     0.0000    16.0000 </r>
       <r>    -8.8581     0.0000    16.0000 </r>
       <r>    -8.7675     0.0000    16.0000 </r>
       <r>    -8.6768     0.0000    16.0000 </r>
       <r>    -8.5862     0.0000    16.0000 </r>
       <r>    -8.4956     0.0000    16.0000 </r>
       <r>    -8.4050     0.0000    16.0000 </r>
       <r>    -8.3143     0.0000    16.0000 </r>
       <r>    -8.2237     0.0001    16.0000 </r>
       <r>    -8.1331     0.0014    16.0001 </r>
       <r>    -8.0425     0.0169    16.0017 </r>
       <r>    -7.9518     0.1342    16.0138 </r>
       <r>    -7.8612     0.7164    16.0787 </r>
       <r>    -7.7706     2.5688    16.3116 </r>
       <r>    -7.6799     6.1890    16.8725 </r>
       <r>    -7.5893    10.0239    17.7809 </r>
       <r>    -7.4987    10.9195    18.7705 </r>
       <r>    -7.4081     8.0307    19.4983 </r>
       <r>    -7.3174     4.2080    19.8797 </r>
       <r>    -7.2268     2.6633    20.1210 </r>
       <r>    -7.1362     4.8617    20.5616 </r>
       <r>    -7.0456    10.3655    21.5010 </r>
       <r>    -6.9549    15.6709    22.9213 </r>
       <r>    -6.8643    15.9892    24.3703 </r>
       <r>    -6.7737    10.9728    25.3648 </r>
       <r>    -6.6830     5.0627    25.8236 </r>
       <r>    -6.5924     1.5720    25.9661 </r>
       <r>    -6.5018     0.3544    25.9982 </r>
       <r>    -6.4112     0.2614    26.0219 </r>
       <r>    -6.3205     1.1392    26.1251 </r>
       <r>    -6.2299     4.0099    26.4885 </r>
       <r>    -6.1393     9.5188    27.3512 </r>
       <r>    -6.0486    15.1908    28.7279 </r>
       <r>    -5.9580    16.3012    30.2052 </r>
       <r>    -5.8674    11.7629    31.2713 </r>
       <r>    -5.7768     5.7067    31.7884 </r>
       <r>    -5.6861     1.8606    31.9571 </r>
       <r>    -5.5955     0.4075    31.9940 </r>
       <r>    -5.5049     0.0599    31.9994 </r>
       <r>    -5.4143     0.0059    32.0000 </r>
       <r>    -5.3236     0.0004    32.0000 </r>
       <r>    -5.2330     0.0000    32.0000 </r>
       <r>    -5.1424     0.0000    32.0000 </r>
       <r>    -5.0517     0.0000    32.0000 </r>
       <r>    -4.9611     0.0000    32.0000 </r>
       <r>    -4.8705     0.0000    32.0000 </r>
       <r>    -4.7799     0.0000    32.0000 </r>
       <r>    -4.6892     0.0000    32.0000 </r>
       <r>    -4.5986     0.0000    32.0000 </r>
       <r>    -4.5080     0.0000    32.0000 </r>
       <r>    -4.4174     0.0000    32.0000 </r>
       <r>    -4.3267     0.0000    32.0000 </r>
       <r>    -4.2361     0.0000    32.0000 </r>
       <r>    -4.1455     0.0000    32.0000 </r>
       <r>    -4.0548     0.0000    32.0000 </r>
       <r>    -3.9642     0.0000    32.0000 </r>
       <r>    -3.8736     0.0000    32.0000 </r>
       <r>    -3.7830     0.0000    32.0000 </r>
       <r>    -3.6923     0.0000    32.0000 </r>
       <r>    -3.6017     0.0000    32.0000 </r>
       <r>    -3.5111     0.0000    32.0000 </r>
       <r>    -3.4204     0.0000    32.0000 </r>
       <r>    -3.3298     0.0000    32.0000 </r>
       <r>    -3.2392     0.0000    32.0000 </r>
       <r>    -3.1486     0.0000    32.0000 </r>
       <r>    -3.0579     0.0000    32.0000 </r>
       <r>    -2.9673     0.0000    32.0000 </r>
       <r>    -2.8767     0.0000    32.0000 </r>
       <r>    -2.7861     0.0000    32.0000 </r>
       <r>    -2.6954     0.0000    32.0000 </r>
       <r>    -2.6048     0.0000    32.0000 </r>
       <r>    -2.5142     0.0000    32.0000 </r>
       <r>    -2.4235     0.0000    32.0000 </r>
       <r>    -2.3329     0.0000    32.0000 </r>
       <r>    -2.2423     0.0000    32.0000 </r>
       <r>    -2.1517     0.0000    32.0000 </r>
       <r>    -2.0610     0.0000    32.0000 </r>
       <r>    -1.9704     0.0000    32.0000 </r>
       <r>    -1.8798     0.0000    32.0000 </r>
       <r>    -1.7891     0.0004    32.0000 </r>
       <r>    -1.6985     0.0056    32.0006 </r>
       <r>    -1.6079     0.0481    32.0049 </r>
       <r>    -1.5173     0.2754    32.0299 </r>
       <r>    -1.4266     1.0584    32.1258 </r>
       <r>    -1.3360     2.7324    32.3734 </r>
       <r>    -1.2454     4.7419    32.8032 </r>
       <r>    -1.1548     5.5333    33.3046 </r>
       <r>    -1.0641     4.3418    33.6981 </r>
       <r>    -0.9735     2.2906    33.9057 </r>
       <r>    -0.8829     0.8123    33.9793 </r>
       <r>    -0.7922     0.1935    33.9969 </r>
       <r>    -0.7016     0.0309    33.9997 </r>
       <r>    -0.6110     0.0033    34.0000 </r>
       <r>    -0.5204     0.0003    34.0000 </r>
       <r>    -0.4297     0.0005    34.0000 </r>
       <r>    -0.3391     0.0073    34.0007 </r>
       <r>    -0.2485     0.0713    34.0072 </r>
       <r>    -0.1579     0.4669    34.0495 </r>
       <r>    -0.0672     2.0561    34.2358 </r>
       <r>     0.0234     6.0952    34.7882 </r>
       <r>     0.1140    12.1714    35.8913 </r>
       <r>     0.2047    16.3800    37.3758 </r>
       <r>     0.2953    14.8601    38.7225 </r>
       <r>     0.3859     9.0881    39.5461 </r>
       <r>     0.4765     3.7462    39.8857 </r>
       <r>     0.5672     1.0404    39.9800 </r>
       <r>     0.6578     0.1946    39.9976 </r>
       <r>     0.7484     0.0245    39.9998 </r>
       <r>     0.8391     0.0021    40.0000 </r>
       <r>     0.9297     0.0001    40.0000 </r>
       <r>     1.0203     0.0000    40.0000 </r>
       <r>     1.1109     0.0000    40.0000 </r>
       <r>     1.2016     0.0000    40.0000 </r>
       <r>     1.2922     0.0000    40.0000 </r>
       <r>     1.3828     0.0000    40.0000 </r>
       <r>     1.4734     0.0000    40.0000 </r>
       <r>     1.5641     0.0000    40.0000 </r>
       <r>     1.6547     0.0000    40.0000 </r>
       <r>     1.7453     0.0000    40.0000 </r>
       <r>     1.8360     0.0000    40.0000 </r>
       <r>     1.9266     0.0000    40.0000 </r>
       <r>     2.0172     0.0000    40.0000 </r>
       <r>     2.1078     0.0000    40.0000 </r>
       <r>     2.1985     0.0000    40.0000 </r>
      </set>
     </set>
    </array>
   </total>
  </dos>
 </calculation>
 <structure name="finalpos" >
  <crystal>
   <varray name="basis" >
    <v>       8.00000000       0.00000000       0.00000000 </v>
    <v>       0.00000000       8.00000000       0.00000000 </v>
    <v>       0.00000000       0.00000000       8.00000000 </v>
   </varray>
   <i name="volume">    512.00000000 </i>
   <varray name="rec_basis" >
    <v>       0.12500000       0.00000000       0.00000000 </v>
    <v>       0.00000000       0.12500000       0.00000000 </v>
    <v>       0.00000000       0.00000000       0.12500000 </v>
   </varray>
  </crystal>
  <varray name="positions" >
   <v>       0.00000000       0.00000000       0.00000000 </v>
   <v>       0.12824964       0.12824964       0.12824964 </v>
   <v>       0.87175036       0.87175036       0.12824964 </v>
   <v>       0.87175036       0.12824964       0.87175036 </v>
   <v>       0.12824964       0.87175036       0.87175036 </v>
  </varray>
 </structure>
</modeling>
