   8   8   0   0
  0.6400000E+02  0.8000000E-09  0.8000000E-09  0.8000000E-09  0.5000000E-15
  1.000000000000000E-004
  CAR 
 unknown system                          
      3.53921131    -20.12483332  301     -7.51256008      1.00000000
    -20.125  0.0000E+00  0.0000E+00
    -20.046  0.0000E+00  0.0000E+00
    -19.967  0.0000E+00  0.0000E+00
    -19.888  0.0000E+00  0.0000E+00
    -19.809  0.0000E+00  0.0000E+00
    -19.730 -0.5879E-26 -0.4638E-27
    -19.652 -0.2686E-23 -0.2123E-24
    -19.573 -0.8979E-21 -0.7104E-22
    -19.494 -0.2192E-18 -0.1736E-19
    -19.415 -0.3905E-16 -0.3098E-17
    -19.336 -0.5076E-14 -0.4035E-15
    -19.257 -0.4655E-12 -0.3712E-13
    -19.178 -0.3201E-10 -0.2562E-11
    -19.099 -0.1597E-08 -0.1285E-09
    -19.021 -0.5776E-07 -0.4685E-08
    -18.942 -0.1511E-05 -0.1238E-06
    -18.863 -0.2845E-04 -0.2368E-05
    -18.784 -0.3835E-03 -0.3262E-04
    -18.705 -0.3666E-02 -0.3218E-03
    -18.626 -0.2445E-01 -0.2251E-02
    -18.547 -0.1103E+00 -0.1095E-01
    -18.468 -0.3122E+00 -0.3558E-01
    -18.389 -0.4150E+00 -0.6831E-01
    -18.311  0.4586E+00 -0.3214E-01
    -18.232  0.3237E+01  0.2232E+00
    -18.153  0.6876E+01  0.7656E+00
    -18.074  0.8239E+01  0.1416E+01
    -17.995  0.5906E+01  0.1881E+01
    -17.916  0.2240E+01  0.2058E+01
    -17.837  0.3217E-01  0.2061E+01
    -17.758 -0.4333E+00  0.2026E+01
    -17.680 -0.2443E+00  0.2007E+01
    -17.601 -0.7440E-01  0.2001E+01
    -17.522 -0.1465E-01  0.2000E+01
    -17.443 -0.1974E-02  0.2000E+01
    -17.364 -0.1867E-03  0.2000E+01
    -17.285 -0.1256E-04  0.2000E+01
    -17.206 -0.6059E-06  0.2000E+01
    -17.127 -0.2108E-07  0.2000E+01
    -17.049 -0.5308E-09  0.2000E+01
    -16.970 -0.9700E-11  0.2000E+01
    -16.891 -0.1295E-12  0.2000E+01
    -16.812  0.0000E+00  0.2000E+01
    -16.733  0.0000E+00  0.2000E+01
    -16.654  0.0000E+00  0.2000E+01
    -16.575  0.0000E+00  0.2000E+01
    -16.496  0.0000E+00  0.2000E+01
    -16.417  0.0000E+00  0.2000E+01
    -16.339  0.0000E+00  0.2000E+01
    -16.260 -0.1710E-28  0.2000E+01
    -16.181 -0.1039E-25  0.2000E+01
    -16.102 -0.4621E-23  0.2000E+01
    -16.023 -0.1501E-20  0.2000E+01
    -15.944 -0.3561E-18  0.2000E+01
    -15.865 -0.6165E-16  0.2000E+01
    -15.786 -0.7786E-14  0.2000E+01
    -15.708 -0.6942E-12  0.2000E+01
    -15.629 -0.4632E-10  0.2000E+01
    -15.550 -0.2244E-08  0.2000E+01
    -15.471 -0.7882E-07  0.2000E+01
    -15.392 -0.2001E-05  0.2000E+01
    -15.313 -0.3656E-04  0.2000E+01
    -15.234 -0.4779E-03  0.2000E+01
    -15.155 -0.4425E-02  0.2000E+01
    -15.077 -0.2853E-01  0.1997E+01
    -14.998 -0.1239E+00  0.1988E+01
    -14.919 -0.3334E+00  0.1961E+01
    -14.840 -0.3943E+00  0.1930E+01
    -14.761  0.6280E+00  0.1980E+01
    -14.682  0.3572E+01  0.2262E+01
    -14.603  0.7143E+01  0.2825E+01
    -14.524  0.8168E+01  0.3469E+01
    -14.445  0.5574E+01  0.3909E+01
    -14.367  0.1954E+01  0.4063E+01
    -14.288 -0.6843E-01  0.4058E+01
    -14.209 -0.4273E+00  0.4024E+01
    -14.130 -0.2238E+00  0.4006E+01
    -14.051 -0.6525E-01  0.4001E+01
    -13.972 -0.1239E-01  0.4000E+01
    -13.893 -0.1616E-02  0.4000E+01
    -13.814 -0.1480E-03  0.4000E+01
    -13.736 -0.9658E-05  0.4000E+01
    -13.657 -0.4522E-06  0.4000E+01
    -13.578 -0.1528E-07  0.4000E+01
    -13.499 -0.3735E-09  0.4000E+01
    -13.420 -0.6632E-11  0.4000E+01
    -13.341 -0.8445E-13  0.4000E+01
    -13.262  0.0000E+00  0.4000E+01
    -13.183  0.0000E+00  0.4000E+01
    -13.105  0.0000E+00  0.4000E+01
    -13.026  0.0000E+00  0.4000E+01
    -12.947  0.0000E+00  0.4000E+01
    -12.868  0.0000E+00  0.4000E+01
    -12.789  0.0000E+00  0.4000E+01
    -12.710  0.0000E+00  0.4000E+01
    -12.631  0.0000E+00  0.4000E+01
    -12.552  0.0000E+00  0.4000E+01
    -12.473  0.0000E+00  0.4000E+01
    -12.395  0.0000E+00  0.4000E+01
    -12.316  0.0000E+00  0.4000E+01
    -12.237  0.0000E+00  0.4000E+01
    -12.158  0.0000E+00  0.4000E+01
    -12.079  0.0000E+00  0.4000E+01
    -12.000  0.0000E+00  0.4000E+01
    -11.921  0.0000E+00  0.4000E+01
    -11.842  0.0000E+00  0.4000E+01
    -11.764 -0.3760E-28  0.4000E+01
    -11.685 -0.2275E-25  0.4000E+01
    -11.606 -0.1007E-22  0.4000E+01
    -11.527 -0.3256E-20  0.4000E+01
    -11.448 -0.7689E-18  0.4000E+01
    -11.369 -0.1325E-15  0.4000E+01
    -11.290 -0.1666E-13  0.4000E+01
    -11.211 -0.1479E-11  0.4000E+01
    -11.132 -0.9819E-10  0.4000E+01
    -11.054 -0.4736E-08  0.4000E+01
    -10.975 -0.1656E-06  0.4000E+01
    -10.896 -0.4183E-05  0.4000E+01
    -10.817 -0.7607E-04  0.4000E+01
    -10.738 -0.9895E-03  0.4000E+01
    -10.659 -0.9115E-02  0.3999E+01
    -10.580 -0.5845E-01  0.3995E+01
    -10.501 -0.2522E+00  0.3975E+01
    -10.423 -0.6734E+00  0.3922E+01
    -10.344 -0.7805E+00  0.3860E+01
    -10.265  0.1313E+01  0.3964E+01
    -10.186  0.7252E+01  0.4536E+01
    -10.107  0.1437E+02  0.5669E+01
    -10.028  0.1631E+02  0.6955E+01
     -9.949  0.1104E+02  0.7826E+01
     -9.870  0.3821E+01  0.8127E+01
     -9.792 -0.1660E+00  0.8114E+01
     -9.713 -0.8520E+00  0.8047E+01
     -9.634 -0.4413E+00  0.8012E+01
     -9.555 -0.1278E+00  0.8002E+01
     -9.476 -0.2413E-01  0.8000E+01
     -9.397 -0.3129E-02  0.8000E+01
     -9.318 -0.2854E-03  0.8000E+01
     -9.239 -0.2038E-04  0.8000E+01
     -9.160 -0.3501E-04  0.8000E+01
     -9.082 -0.4502E-03  0.8000E+01
     -9.003 -0.4204E-02  0.8000E+01
     -8.924 -0.2736E-01  0.7997E+01
     -8.845 -0.1200E+00  0.7988E+01
     -8.766 -0.3276E+00  0.7962E+01
     -8.687 -0.4008E+00  0.7931E+01
     -8.608  0.5799E+00  0.7976E+01
     -8.529  0.3480E+01  0.8251E+01
     -8.451  0.7072E+01  0.8809E+01
     -8.372  0.8190E+01  0.9455E+01
     -8.293  0.5662E+01  0.9901E+01
     -8.214  0.2007E+01  0.1006E+02
     -8.135 -0.1690E+00  0.1005E+02
     -8.056 -0.8679E+00  0.9978E+01
     -7.977 -0.1080E+01  0.9893E+01
     -7.898 -0.2463E+00  0.9873E+01
     -7.820  0.3769E+01  0.1017E+02
     -7.741  0.1099E+02  0.1104E+02
     -7.662  0.1629E+02  0.1232E+02
     -7.583  0.1440E+02  0.1346E+02
     -7.504  0.7300E+01  0.1403E+02
     -7.425  0.1338E+01  0.1414E+02
     -7.346 -0.7767E+00  0.1408E+02
     -7.267 -0.6763E+00  0.1403E+02
     -7.188 -0.2542E+00  0.1401E+02
     -7.110 -0.5907E-01  0.1400E+02
     -7.031 -0.9235E-02  0.1400E+02
     -6.952 -0.1005E-02  0.1400E+02
     -6.873 -0.7741E-04  0.1400E+02
     -6.794 -0.4266E-05  0.1400E+02
     -6.715 -0.1692E-06  0.1400E+02
     -6.636 -0.4849E-08  0.1400E+02
     -6.557 -0.1008E-09  0.1400E+02
     -6.479 -0.1514E-11  0.1400E+02
     -6.400 -0.2252E-13  0.1400E+02
     -6.321  0.0000E+00  0.1400E+02
     -6.242  0.0000E+00  0.1400E+02
     -6.163  0.0000E+00  0.1400E+02
     -6.084  0.0000E+00  0.1400E+02
     -6.005  0.0000E+00  0.1400E+02
     -5.926  0.0000E+00  0.1400E+02
     -5.848  0.0000E+00  0.1400E+02
     -5.769  0.0000E+00  0.1400E+02
     -5.690  0.0000E+00  0.1400E+02
     -5.611  0.0000E+00  0.1400E+02
     -5.532  0.0000E+00  0.1400E+02
     -5.453  0.0000E+00  0.1400E+02
     -5.374  0.0000E+00  0.1400E+02
     -5.295  0.0000E+00  0.1400E+02
     -5.216  0.0000E+00  0.1400E+02
     -5.138  0.0000E+00  0.1400E+02
     -5.059  0.0000E+00  0.1400E+02
     -4.980  0.0000E+00  0.1400E+02
     -4.901  0.0000E+00  0.1400E+02
     -4.822  0.0000E+00  0.1400E+02
     -4.743  0.0000E+00  0.1400E+02
     -4.664  0.0000E+00  0.1400E+02
     -4.585  0.0000E+00  0.1400E+02
     -4.507  0.0000E+00  0.1400E+02
     -4.428  0.0000E+00  0.1400E+02
     -4.349  0.0000E+00  0.1400E+02
     -4.270  0.0000E+00  0.1400E+02
     -4.191  0.0000E+00  0.1400E+02
     -4.112  0.0000E+00  0.1400E+02
     -4.033  0.0000E+00  0.1400E+02
     -3.954  0.0000E+00  0.1400E+02
     -3.876  0.0000E+00  0.1400E+02
     -3.797  0.0000E+00  0.1400E+02
     -3.718  0.0000E+00  0.1400E+02
     -3.639  0.0000E+00  0.1400E+02
     -3.560  0.0000E+00  0.1400E+02
     -3.481  0.0000E+00  0.1400E+02
     -3.402  0.0000E+00  0.1400E+02
     -3.323  0.0000E+00  0.1400E+02
     -3.244  0.0000E+00  0.1400E+02
     -3.166  0.0000E+00  0.1400E+02
     -3.087  0.0000E+00  0.1400E+02
     -3.008  0.0000E+00  0.1400E+02
     -2.929  0.0000E+00  0.1400E+02
     -2.850  0.0000E+00  0.1400E+02
     -2.771  0.0000E+00  0.1400E+02
     -2.692  0.0000E+00  0.1400E+02
     -2.613  0.0000E+00  0.1400E+02
     -2.535  0.0000E+00  0.1400E+02
     -2.456  0.0000E+00  0.1400E+02
     -2.377  0.0000E+00  0.1400E+02
     -2.298  0.0000E+00  0.1400E+02
     -2.219 -0.4605E-28  0.1400E+02
     -2.140 -0.2669E-25  0.1400E+02
     -2.061 -0.1132E-22  0.1400E+02
     -1.982 -0.3506E-20  0.1400E+02
     -1.904 -0.7929E-18  0.1400E+02
     -1.825 -0.1309E-15  0.1400E+02
     -1.746 -0.1576E-13  0.1400E+02
     -1.667 -0.1338E-11  0.1400E+02
     -1.588 -0.8508E-10  0.1400E+02
     -1.509 -0.3927E-08  0.1400E+02
     -1.430 -0.1313E-06  0.1400E+02
     -1.351 -0.3173E-05  0.1400E+02
     -1.272 -0.5514E-04  0.1400E+02
     -1.194 -0.6846E-03  0.1400E+02
     -1.115 -0.6009E-02  0.1400E+02
     -1.036 -0.3659E-01  0.1400E+02
     -0.957 -0.1489E+00  0.1398E+02
     -0.878 -0.3670E+00  0.1396E+02
     -0.799 -0.3398E+00  0.1393E+02
     -0.720  0.9485E+00  0.1400E+02
     -0.641  0.4144E+01  0.1433E+02
     -0.563  0.7534E+01  0.1493E+02
     -0.484  0.7976E+01  0.1555E+02
     -0.405  0.5004E+01  0.1595E+02
     -0.326  0.1515E+01  0.1607E+02
     -0.247 -0.2038E+00  0.1605E+02
     -0.168 -0.4087E+00  0.1602E+02
     -0.089 -0.1916E+00  0.1600E+02
     -0.010 -0.5206E-01  0.1600E+02
      0.068 -0.9320E-02  0.1600E+02
      0.147 -0.1150E-02  0.1600E+02
      0.226 -0.1001E-03  0.1600E+02
      0.305 -0.6206E-05  0.1600E+02
      0.384 -0.2770E-06  0.1600E+02
      0.463 -0.3067E-07  0.1600E+02
      0.542 -0.6626E-06  0.1600E+02
      0.621 -0.1462E-04  0.1600E+02
      0.700 -0.2333E-03  0.1600E+02
      0.778 -0.2678E-02  0.1600E+02
      0.857 -0.2188E-01  0.1600E+02
      0.936 -0.1251E+00  0.1599E+02
      1.015 -0.4830E+00  0.1595E+02
      1.094 -0.1146E+01  0.1586E+02
      1.173 -0.1058E+01  0.1578E+02
      1.252  0.2760E+01  0.1599E+02
      1.331  0.1254E+02  0.1698E+02
      1.409  0.2435E+02  0.1890E+02
      1.488  0.2924E+02  0.2121E+02
      1.567  0.2316E+02  0.2304E+02
      1.646  0.1172E+02  0.2396E+02
      1.725  0.2865E+01  0.2419E+02
      1.804 -0.7107E+00  0.2413E+02
      1.883 -0.1006E+01  0.2405E+02
      1.962 -0.4833E+00  0.2401E+02
      2.040 -0.1430E+00  0.2400E+02
      2.119 -0.2878E-01  0.2400E+02
      2.198 -0.4071E-02  0.2400E+02
      2.277 -0.4107E-03  0.2400E+02
      2.356 -0.2976E-04  0.2400E+02
      2.435 -0.1557E-05  0.2400E+02
      2.514 -0.5894E-07  0.2400E+02
      2.593 -0.1619E-08  0.2400E+02
      2.672 -0.3232E-10  0.2400E+02
      2.750 -0.4617E-12  0.2400E+02
      2.829 -0.5630E-14  0.2400E+02
      2.908  0.0000E+00  0.2400E+02
      2.987  0.0000E+00  0.2400E+02
      3.066  0.0000E+00  0.2400E+02
      3.145  0.0000E+00  0.2400E+02
      3.224  0.0000E+00  0.2400E+02
      3.303  0.0000E+00  0.2400E+02
      3.381  0.0000E+00  0.2400E+02
      3.460  0.0000E+00  0.2400E+02
      3.539  0.0000E+00  0.2400E+02
