    8    8    1    1
  0.6400000E+02  0.8000000E-09  0.8000000E-09  0.8000000E-09  0.5000000E-15
  1.000000000000000E-004
  CAR 
 unknown system                          
   14    1   12
 
  0.0000000E+00  0.0000000E+00  0.0000000E+00  0.1000000E+01
   1      -18.124833
   2      -14.582415
   3      -10.087480
   4      -10.087289
   5       -8.427798
   6       -7.681059
   7       -7.680815
   8       -0.553689
   9        1.386072
  10        1.419590
  11        1.448732
  12        1.539211
