       N       E                     dE             d eps       ncg     rms          rms(c)
DAV:   1     0.815511782888E+02    0.81551E+02   -0.36977E+03    24   0.576E+02
DAV:   2    -0.153548903044E+02   -0.96906E+02   -0.88693E+02    32   0.154E+02
DAV:   3    -0.439463619410E+02   -0.28591E+02   -0.28495E+02    28   0.888E+01
DAV:   4    -0.458994137692E+02   -0.19531E+01   -0.19608E+01    32   0.287E+01
DAV:   5    -0.459571164785E+02   -0.57703E-01   -0.57633E-01    32   0.448E+00    0.105E+01
DAV:   6    -0.415654229627E+02    0.43917E+01   -0.81472E+00    24   0.166E+01    0.477E+00
DAV:   7    -0.406808020815E+02    0.88462E+00   -0.25283E+00    28   0.863E+00    0.236E+00
DAV:   8    -0.404608424445E+02    0.21996E+00   -0.43665E-01    28   0.437E+00    0.670E-01
DAV:   9    -0.404460417494E+02    0.14801E-01   -0.46479E-02    32   0.132E+00    0.327E-01
DAV:  10    -0.404534963262E+02   -0.74546E-02   -0.10229E-01    24   0.169E+00    0.389E-01
DAV:  11    -0.404491177024E+02    0.43786E-02   -0.15635E-02    28   0.713E-01    0.134E-01
DAV:  12    -0.404535335861E+02   -0.44159E-02   -0.34413E-03    24   0.417E-01    0.579E-02
DAV:  13    -0.404577966432E+02   -0.42631E-02   -0.43364E-04    24   0.135E-01    0.304E-02
DAV:  14    -0.404597956735E+02   -0.19990E-02   -0.28625E-04    28   0.821E-02    0.261E-02
DAV:  15    -0.404603536210E+02   -0.55795E-03   -0.18508E-04    28   0.799E-02    0.623E-03
DAV:  16    -0.404604691115E+02   -0.11549E-03   -0.19219E-05    28   0.283E-02    0.517E-03
DAV:  17    -0.404604814993E+02   -0.12388E-04   -0.61284E-06    28   0.126E-02
   1 F= -.40460481E+02 E0= -.40468212E+02  d E =0.231917E-01
