<?xml version="1.0" encoding="ISO-8859-1"?>
<modeling>
 <generator>
  <i name="program" type="string">vasp </i>
  <i name="version" type="string">5.2.12  </i>
  <i name="subversion" type="string">11Nov11 complex                                                      parallel </i>
  <i name="platform" type="string">LinuxIFC </i>
  <i name="date" type="string">2012 11 03 </i>
  <i name="time" type="string">00:40:36 </i>
 </generator>
 <incar>
  <i type="string" name="PREC">normal</i>
  <i name="ENCUT">    400.00000000</i>
 </incar>
 <kpoints>
  <generation param="Monkhorst-Pack">
   <v type="int" name="divisions">       1        1        1 </v>
   <v name="usershift">      0.00000000       0.00000000       0.00000000 </v>
   <v name="genvec1">      1.00000000       0.00000000       0.00000000 </v>
   <v name="genvec2">      0.00000000       1.00000000       0.00000000 </v>
   <v name="genvec3">      0.00000000       0.00000000       1.00000000 </v>
   <v name="shift">      0.00000000       0.00000000       0.00000000 </v>
  </generation>
  <varray name="kpointlist" >
   <v>       0.00000000       0.00000000       0.00000000 </v>
  </varray>
  <varray name="weights" >
   <v>       1.00000000 </v>
  </varray>
 </kpoints>
 <parameters>
  <separator name="general" >
   <i type="string" name="SYSTEM">unknown system</i>
   <i type="logical" name="LCOMPAT"> F  </i>
  </separator>
  <separator name="electronic" >
   <i type="string" name="PREC">normal</i>
   <i name="ENMAX">    400.00000000</i>
   <i name="ENAUG">    644.87300000</i>
   <i name="EDIFF">      0.00010000</i>
   <i type="int" name="IALGO">    38</i>
   <i type="int" name="IWAVPR">    10</i>
   <i type="int" name="NBANDS">    12</i>
   <i name="NELECT">     14.00000000</i>
   <i type="int" name="TURBO">     0</i>
   <i type="int" name="IRESTART">     0</i>
   <i type="int" name="NREBOOT">     0</i>
   <i type="int" name="NMIN">     0</i>
   <i name="EREF">      0.00000000</i>
   <separator name="electronic smearing" >
    <i type="int" name="ISMEAR">     1</i>
    <i name="SIGMA">      0.20000000</i>
    <i name="KSPACING">      0.50000000</i>
    <i type="logical" name="KGAMMA"> T  </i>
   </separator>
   <separator name="electronic projectors" >
    <i type="logical" name="LREAL"> F  </i>
    <v name="ROPT">      0.00000000      0.00000000</v>
    <i type="int" name="LMAXPAW">  -100</i>
    <i type="int" name="LMAXMIX">     2</i>
    <i type="logical" name="NLSPLINE"> F  </i>
   </separator>
   <separator name="electronic startup" >
    <i type="int" name="ISTART">     0</i>
    <i type="int" name="ICHARG">     2</i>
    <i type="int" name="INIWAV">     1</i>
   </separator>
   <separator name="electronic spin" >
    <i type="int" name="ISPIN">     1</i>
    <i type="logical" name="LNONCOLLINEAR"> F  </i>
    <v name="MAGMOM">      1.00000000      1.00000000      1.00000000      1.00000000      1.00000000      1.00000000      1.00000000      1.00000000</v>
    <i name="NUPDOWN">     -1.00000000</i>
    <i type="logical" name="LSORBIT"> F  </i>
    <v name="SAXIS">      0.00000000      0.00000000      1.00000000</v>
    <i type="logical" name="LSPIRAL"> F  </i>
    <v name="QSPIRAL">      0.00000000      0.00000000      0.00000000</v>
    <i type="logical" name="LZEROZ"> F  </i>
   </separator>
   <separator name="electronic exchange-correlation" >
    <i type="logical" name="LASPH"> F  </i>
    <i type="logical" name="LMETAGGA"> F  </i>
   </separator>
   <separator name="electronic convergence" >
    <i type="int" name="NELM">    60</i>
    <i type="int" name="NELMDL">    -5</i>
    <i type="int" name="NELMIN">     2</i>
    <i name="ENINI">    400.00000000</i>
    <separator name="electronic convergence detail" >
     <i type="logical" name="LDIAG"> T  </i>
     <i type="logical" name="LSUBROT"> T  </i>
     <i name="WEIMIN">      0.00000000</i>
     <i name="EBREAK">      0.00000208</i>
     <i name="DEPER">      0.30000000</i>
     <i type="int" name="NRMM">     4</i>
     <i name="TIME">      0.40000000</i>
    </separator>
   </separator>
   <separator name="electronic mixer" >
    <i name="AMIX">      0.40000000</i>
    <i name="BMIX">      1.00000000</i>
    <i name="AMIN">      0.10000000</i>
    <i name="AMIX_MAG">      1.60000000</i>
    <i name="BMIX_MAG">      1.00000000</i>
    <separator name="electronic mixer details" >
     <i type="int" name="IMIX">     4</i>
     <i type="int" name="MAXMIX">   -45</i>
     <i name="WC">    100.00000000</i>
     <i type="int" name="INIMIX">     1</i>
     <i type="int" name="MIXPRE">     1</i>
     <i type="int" name="MREMOVE">     5</i>
    </separator>
   </separator>
   <separator name="electronic dipolcorrection" >
    <i type="logical" name="LDIPOL"> F  </i>
    <i type="logical" name="LMONO"> F  </i>
    <i type="int" name="IDIPOL">     0</i>
    <i name="EPSILON">      1.00000000</i>
    <v name="DIPOL">   -100.00000000   -100.00000000   -100.00000000</v>
    <i name="EFIELD">      0.00000000</i>
   </separator>
  </separator>
  <separator name="grids" >
   <i type="int" name="NGX">    40</i>
   <i type="int" name="NGY">    40</i>
   <i type="int" name="NGZ">    40</i>
   <i type="int" name="NGXF">    80</i>
   <i type="int" name="NGYF">    80</i>
   <i type="int" name="NGZF">    80</i>
   <i type="logical" name="ADDGRID"> F  </i>
  </separator>
  <separator name="ionic" >
   <i type="int" name="NSW">     0</i>
   <i type="int" name="IBRION">    -1</i>
   <i type="int" name="ISIF">     2</i>
   <i name="PSTRESS">      0.00000000</i>
   <i name="EDIFFG">      0.00100000</i>
   <i type="int" name="NFREE">     0</i>
   <i name="POTIM">      0.50000000</i>
   <i name="SMASS">     -3.00000000</i>
   <i name="SCALEE">      1.00000000</i>
  </separator>
  <separator name="ionic md" >
   <i name="TEBEG">      0.00010000</i>
   <i name="TEEND">      0.00010000</i>
   <i type="int" name="NBLOCK">     1</i>
   <i type="int" name="KBLOCK">     1</i>
   <i type="int" name="NPACO">   256</i>
   <i name="APACO">     16.00000000</i>
  </separator>
  <separator name="symmetry" >
   <i type="int" name="ISYM">     2</i>
   <i name="SYMPREC">      0.00001000</i>
  </separator>
  <separator name="dos" >
   <i type="logical" name="LORBIT"> F  </i>
   <v name="RWIGS">     -1.00000000     -1.00000000</v>
   <i type="int" name="NEDOS">   301</i>
   <i name="EMIN">     10.00000000</i>
   <i name="EMAX">    -10.00000000</i>
   <i name="EFERMI">      0.00000000</i>
  </separator>
  <separator name="writing" >
   <i type="int" name="NWRITE">     2</i>
   <i type="logical" name="LWAVE"> T  </i>
   <i type="logical" name="LCHARG"> T  </i>
   <i type="logical" name="LPARD"> F  </i>
   <i type="logical" name="LVTOT"> F  </i>
   <i type="logical" name="LVHAR"> F  </i>
   <i type="logical" name="LELF"> F  </i>
   <i type="logical" name="LOPTICS"> F  </i>
   <v name="STM">      0.00000000      0.00000000      0.00000000      0.00000000      0.00000000      0.00000000      0.00000000</v>
  </separator>
  <separator name="performance" >
   <i type="int" name="NPAR">     1</i>
   <i type="int" name="NSIM">     4</i>
   <i type="int" name="NBLK">    -1</i>
   <i type="logical" name="LPLANE"> T  </i>
   <i type="logical" name="LSCALAPACK"> F  </i>
   <i type="logical" name="LSCAAWARE"> F  </i>
   <i type="logical" name="LSCALU"> F  </i>
   <i type="logical" name="LASYNC"> F  </i>
   <i type="logical" name="LORBITALREAL"> F  </i>
  </separator>
  <separator name="miscellaneous" >
   <i type="int" name="IDIOT">     3</i>
   <i type="logical" name="LMUSIC"> F  </i>
   <v name="POMASS">      1.00000000     12.01100000</v>
   <v name="DARWINR">      0.00000000      0.00000000</v>
   <v name="DARWINV">      1.00000000      1.00000000</v>
   <i type="logical" name="LCORR"> T  </i>
  </separator>
  <i type="logical" name="GGA_COMPAT"> T  </i>
  <i type="logical" name="LBERRY"> F  </i>
  <i type="int" name="ICORELEVEL">     0</i>
  <i type="logical" name="LDAU"> F  </i>
  <i type="int" name="I_CONSTRAINED_M">     0</i>
  <separator name="electronic exchange-correlation" >
   <i type="string" name="GGA">--</i>
   <i type="int" name="VOSKOWN">     0</i>
   <i type="logical" name="LHFCALC"> F  </i>
   <i type="string" name="PRECFOCK"></i>
   <i type="logical" name="LHFONE"> F  </i>
   <i type="logical" name="LRHFCALC"> F  </i>
   <i type="logical" name="LTHOMAS"> F  </i>
   <i type="logical" name="LMODELHF"> F  </i>
   <i name="ENCUT4O">     -1.00000000</i>
   <i type="int" name="EXXOEP">     0</i>
   <i type="int" name="FOURORBIT">     0</i>
   <i name="AEXX">      0.00000000</i>
   <i name="HFALPHA">      0.00000000</i>
   <i name="ALDAX">      1.00000000</i>
   <i name="AGGAX">      1.00000000</i>
   <i name="ALDAC">      1.00000000</i>
   <i name="AGGAC">      1.00000000</i>
   <i type="int" name="NKREDX">     1</i>
   <i type="int" name="NKREDY">     1</i>
   <i type="int" name="NKREDZ">     1</i>
   <i type="logical" name="SHIFTRED"> F  </i>
   <i type="logical" name="ODDONLY"> F  </i>
   <i type="logical" name="EVENONLY"> F  </i>
   <i type="int" name="LMAXFOCK">     0</i>
   <i type="int" name="NMAXFOCKAE">     0</i>
   <i type="logical" name="LFOCKAEDFT"> F  </i>
   <i name="HFSCREEN">      0.00000000</i>
   <i name="HFSCREENC">      0.00000000</i>
  </separator>
  <separator name="vdW DFT" >
   <i type="logical" name="LUSE_VDW"> F  </i>
   <i name="Zab_VDW">     -0.84910000</i>
   <i name="PARAM1">      0.12340000</i>
   <i name="PARAM2">      1.00000000</i>
   <i name="PARAM3">      0.00000000</i>
  </separator>
  <separator name="model GW" >
   <i type="int" name="MODEL_GW">     0</i>
   <i name="MODEL_EPS0">     38.40000000</i>
   <i name="MODEL_ALPHA">      1.00000000</i>
  </separator>
  <separator name="linear response parameters" >
   <i type="logical" name="LEPSILON"> F  </i>
   <i type="logical" name="LRPA"> F  </i>
   <i type="logical" name="LNABLA"> F  </i>
   <i type="logical" name="LVEL"> F  </i>
   <i type="int" name="KINTER">     0</i>
   <i name="CSHIFT">      0.10000000</i>
   <i name="OMEGAMAX">     -1.00000000</i>
  </separator>
  <separator name="orbital magnetization" >
   <i type="logical" name="NUCIND"> F  </i>
   <v name="MAGPOS">      0.00000000      0.00000000      0.00000000</v>
   <i type="logical" name="LNICSALL"> T  </i>
   <i type="logical" name="ORBITALMAG"> F  </i>
   <i type="logical" name="LMAGBLOCH"> F  </i>
   <i type="logical" name="LCHIMAG"> F  </i>
   <i type="logical" name="LGAUGE"> T  </i>
   <i type="int" name="MAGATOM">     0</i>
   <v name="MAGDIPOL">      0.00000000      0.00000000      0.00000000</v>
   <v name="AVECCONST">      0.00000000      0.00000000      0.00000000</v>
  </separator>
  <separator name="response functions" >
   <i type="logical" name="LADDER"> F  </i>
   <i type="logical" name="LHARTREE"> T  </i>
   <i type="int" name="IBSE">     0</i>
   <i type="logical" name="LTCTE"> F  </i>
   <i type="logical" name="LTETE"> F  </i>
   <i type="logical" name="LFXCEPS"> F  </i>
   <i type="logical" name="L2ORDER"> F  </i>
   <i type="logical" name="LUSEW"> F  </i>
   <i name="ENCUTGW">     -2.00000000</i>
   <i name="ENCUTGWSOFT">     -2.00000000</i>
   <i name="ENCUTLF">     -1.00000000</i>
   <i type="int" name="LMAXMP2">    -1</i>
   <i name="SCISSOR">      0.00000000</i>
   <i type="int" name="NOMEGA">     0</i>
   <i type="int" name="NOMEGAR">     0</i>
   <i type="int" name="NBANDSGW">    -1</i>
   <i type="int" name="NBANDSO">    -1</i>
   <i type="int" name="NBANDSV">    -1</i>
   <i name="OPTEMAX">      0.00000000</i>
   <i type="int" name="NELM">     1</i>
   <i type="int" name="DIM">     3</i>
   <i type="int" name="ANTIRES">     0</i>
   <i name="OMEGAMAX">    -30.00000000</i>
   <i name="OMEGATL">   -200.00000000</i>
   <i type="int" name="OMEGAGRID">     0</i>
   <i name="CSHIFT">     -0.10000000</i>
   <i type="logical" name="SELFENERGY"> F  </i>
   <i type="logical" name="LSPECTRAL"> F  </i>
   <i type="logical" name="ODDONLYGW"> F  </i>
   <i type="logical" name="EVENONLYGW"> F  </i>
   <i type="int" name="NKREDLFX">     1</i>
   <i type="int" name="NKREDLFY">     1</i>
   <i type="int" name="NKREDLFZ">     1</i>
   <i type="int" name="MAXMEM">  1800</i>
   <i type="int" name="TELESCOPE">     0</i>
  </separator>
 </parameters>
 <atominfo>
  <atoms>       8 </atoms>
  <types>       2 </types>
  <array name="atoms" >
   <dimension dim="1">ion</dimension>
   <field type="string">element</field>
   <field type="int">atomtype</field>
   <set>
    <rc><c>H </c><c>   1</c></rc>
    <rc><c>H </c><c>   1</c></rc>
    <rc><c>H </c><c>   1</c></rc>
    <rc><c>H </c><c>   1</c></rc>
    <rc><c>H </c><c>   1</c></rc>
    <rc><c>H </c><c>   1</c></rc>
    <rc><c>C </c><c>   2</c></rc>
    <rc><c>C </c><c>   2</c></rc>
   </set>
  </array>
  <array name="atomtypes" >
   <dimension dim="1">type</dimension>
   <field type="int">atomspertype</field>
   <field type="string">element</field>
   <field>mass</field>
   <field>valence</field>
   <field type="string">pseudopotential</field>
   <set>
    <rc><c>   6</c><c>H </c><c>      1.00000000</c><c>      1.00000000</c><c> PAW_PBE H 15Jun2001                    </c></rc>
    <rc><c>   2</c><c>C </c><c>     12.01100000</c><c>      4.00000000</c><c> PAW_PBE C 08Apr2002                    </c></rc>
   </set>
  </array>
 </atominfo>
 <structure name="initialpos" >
  <crystal>
   <varray name="basis" >
    <v>       8.00000000       0.00000000       0.00000000 </v>
    <v>       0.00000000       8.00000000       0.00000000 </v>
    <v>       0.00000000       0.00000000       8.00000000 </v>
   </varray>
   <i name="volume">    512.00000000 </i>
   <varray name="rec_basis" >
    <v>       0.12500000       0.00000000       0.00000000 </v>
    <v>       0.00000000       0.12500000       0.00000000 </v>
    <v>       0.00000000       0.00000000       0.12500000 </v>
   </varray>
  </crystal>
  <varray name="positions" >
   <v>       0.50000000       0.62736963       0.64465362 </v>
   <v>       0.38969462       0.43631513       0.64465362 </v>
   <v>       0.61030538       0.43631513       0.64465362 </v>
   <v>       0.50000000       0.37263037       0.35534638 </v>
   <v>       0.38969462       0.56368487       0.35534638 </v>
   <v>       0.61030538       0.56368487       0.35534638 </v>
   <v>       0.50000000       0.50000000       0.59527612 </v>
   <v>       0.50000000       0.50000000       0.40472388 </v>
  </varray>
 </structure>
 <calculation>
  <scstep>
   <time name="dav">    0.50    0.50</time>
   <time name="total">    1.36    1.36</time>
   <energy>
    <i name="alphaZ">      1.51367591 </i>
    <i name="ewald">    238.82698518 </i>
    <i name="hartreedc">   -467.83007563 </i>
    <i name="XCdc">     41.11769193 </i>
    <i name="pawpsdc">     80.35084045 </i>
    <i name="pawaedc">    -82.70584614 </i>
    <i name="eentropy">      0.01159581 </i>
    <i name="bandstr">    -98.85993295 </i>
    <i name="atom">    369.12624373 </i>
    <i name="e_fr_energy">     81.55117829 </i>
    <i name="e_wo_entrp">     81.53958248 </i>
    <i name="e_0_energy">     81.54731302 </i>
   </energy>
  </scstep>
  <scstep>
   <time name="dav">    0.65    0.65</time>
   <time name="total">    0.65    0.65</time>
   <energy>
    <i name="e_fr_energy">    -15.35489030 </i>
    <i name="e_wo_entrp">    -15.36648612 </i>
    <i name="e_0_energy">    -15.35875557 </i>
   </energy>
  </scstep>
  <scstep>
   <time name="dav">    0.58    0.58</time>
   <time name="total">    0.58    0.59</time>
   <energy>
    <i name="e_fr_energy">    -43.94636194 </i>
    <i name="e_wo_entrp">    -43.95856457 </i>
    <i name="e_0_energy">    -43.95042948 </i>
   </energy>
  </scstep>
  <scstep>
   <time name="dav">    0.64    0.64</time>
   <time name="total">    0.64    0.66</time>
   <energy>
    <i name="e_fr_energy">    -45.89941377 </i>
    <i name="e_wo_entrp">    -45.92268176 </i>
    <i name="e_0_energy">    -45.90716977 </i>
   </energy>
  </scstep>
  <scstep>
   <time name="dav">    0.64    0.64</time>
   <time name="total">    0.78    0.80</time>
   <energy>
    <i name="e_fr_energy">    -45.95711648 </i>
    <i name="e_wo_entrp">    -45.98030853 </i>
    <i name="e_0_energy">    -45.96484716 </i>
   </energy>
  </scstep>
  <scstep>
   <time name="dav">    0.53    0.53</time>
   <time name="total">    1.48    1.50</time>
   <energy>
    <i name="e_fr_energy">    -41.56542296 </i>
    <i name="e_wo_entrp">    -41.58861462 </i>
    <i name="e_0_energy">    -41.57315352 </i>
   </energy>
  </scstep>
  <scstep>
   <time name="dav">    0.59    0.59</time>
   <time name="total">    1.55    1.56</time>
   <energy>
    <i name="e_fr_energy">    -40.68080208 </i>
    <i name="e_wo_entrp">    -40.70401790 </i>
    <i name="e_0_energy">    -40.68854069 </i>
   </energy>
  </scstep>
  <scstep>
   <time name="dav">    0.59    0.59</time>
   <time name="total">    1.55    1.56</time>
   <energy>
    <i name="e_fr_energy">    -40.46084244 </i>
    <i name="e_wo_entrp">    -40.48412287 </i>
    <i name="e_0_energy">    -40.46860259 </i>
   </energy>
  </scstep>
  <scstep>
   <time name="dav">    0.65    0.65</time>
   <time name="total">    1.61    1.63</time>
   <energy>
    <i name="e_fr_energy">    -40.44604175 </i>
    <i name="e_wo_entrp">    -40.46923615 </i>
    <i name="e_0_energy">    -40.45377322 </i>
   </energy>
  </scstep>
  <scstep>
   <time name="dav">    0.53    0.53</time>
   <time name="total">    1.49    1.50</time>
   <energy>
    <i name="e_fr_energy">    -40.45349633 </i>
    <i name="e_wo_entrp">    -40.47668837 </i>
    <i name="e_0_energy">    -40.46122701 </i>
   </energy>
  </scstep>
  <scstep>
   <time name="dav">    0.58    0.58</time>
   <time name="total">    1.52    1.54</time>
   <energy>
    <i name="e_fr_energy">    -40.44911770 </i>
    <i name="e_wo_entrp">    -40.47231170 </i>
    <i name="e_0_energy">    -40.45684903 </i>
   </energy>
  </scstep>
  <scstep>
   <time name="dav">    0.52    0.52</time>
   <time name="total">    1.46    1.46</time>
   <energy>
    <i name="e_fr_energy">    -40.45353359 </i>
    <i name="e_wo_entrp">    -40.47672562 </i>
    <i name="e_0_energy">    -40.46126426 </i>
   </energy>
  </scstep>
  <scstep>
   <time name="dav">    0.52    0.52</time>
   <time name="total">    1.44    1.46</time>
   <energy>
    <i name="e_fr_energy">    -40.45779664 </i>
    <i name="e_wo_entrp">    -40.48098828 </i>
    <i name="e_0_energy">    -40.46552719 </i>
   </energy>
  </scstep>
  <scstep>
   <time name="dav">    0.58    0.58</time>
   <time name="total">    1.51    1.52</time>
   <energy>
    <i name="e_fr_energy">    -40.45979567 </i>
    <i name="e_wo_entrp">    -40.48298732 </i>
    <i name="e_0_energy">    -40.46752622 </i>
   </energy>
  </scstep>
  <scstep>
   <time name="dav">    0.58    0.58</time>
   <time name="total">    1.51    1.52</time>
   <energy>
    <i name="e_fr_energy">    -40.46035362 </i>
    <i name="e_wo_entrp">    -40.48354528 </i>
    <i name="e_0_energy">    -40.46808418 </i>
   </energy>
  </scstep>
  <scstep>
   <time name="dav">    0.57    0.57</time>
   <time name="total">    1.52    1.53</time>
   <energy>
    <i name="e_fr_energy">    -40.46046911 </i>
    <i name="e_wo_entrp">    -40.48366076 </i>
    <i name="e_0_energy">    -40.46819966 </i>
   </energy>
  </scstep>
  <scstep>
   <time name="dav">    0.57    0.57</time>
   <time name="total">    1.38    1.39</time>
   <energy>
    <i name="alphaZ">      1.51367591 </i>
    <i name="ewald">    238.82698518 </i>
    <i name="hartreedc">   -539.38487378 </i>
    <i name="XCdc">     45.51448233 </i>
    <i name="pawpsdc">    169.16405253 </i>
    <i name="pawaedc">   -171.90086485 </i>
    <i name="eentropy">      0.02319166 </i>
    <i name="bandstr">   -153.34337421 </i>
    <i name="atom">    369.12624373 </i>
    <i name="e_fr_energy">    -40.46048150 </i>
    <i name="e_wo_entrp">    -40.48367316 </i>
    <i name="e_0_energy">    -40.46821205 </i>
   </energy>
  </scstep>
  <parameters_embedded>
   <separator name="dft+d2" >
    <i type="logical" name="LVDW"> F  </i>
   </separator>
  </parameters_embedded>
  <structure>
   <crystal>
    <varray name="basis" >
     <v>       8.00000000       0.00000000       0.00000000 </v>
     <v>       0.00000000       8.00000000       0.00000000 </v>
     <v>       0.00000000       0.00000000       8.00000000 </v>
    </varray>
    <i name="volume">    512.00000000 </i>
    <varray name="rec_basis" >
     <v>       0.12500000       0.00000000       0.00000000 </v>
     <v>       0.00000000       0.12500000       0.00000000 </v>
     <v>       0.00000000       0.00000000       0.12500000 </v>
    </varray>
   </crystal>
   <varray name="positions" >
    <v>       0.50000000       0.62736963       0.64465362 </v>
    <v>       0.38969462       0.43631513       0.64465362 </v>
    <v>       0.61030538       0.43631513       0.64465362 </v>
    <v>       0.50000000       0.37263037       0.35534638 </v>
    <v>       0.38969462       0.56368487       0.35534638 </v>
    <v>       0.61030538       0.56368487       0.35534638 </v>
    <v>       0.50000000       0.50000000       0.59527612 </v>
    <v>       0.50000000       0.50000000       0.40472388 </v>
   </varray>
  </structure>
  <varray name="forces" >
   <v>       0.00000000       0.21309283       0.11393096 </v>
   <v>      -0.18572736      -0.10621730       0.11433251 </v>
   <v>       0.18572736      -0.10621730       0.11433251 </v>
   <v>       0.00000000      -0.21309283      -0.11393096 </v>
   <v>      -0.18572736       0.10621730      -0.11433251 </v>
   <v>       0.18572736       0.10621730      -0.11433251 </v>
   <v>       0.00000000       0.00251384      -0.16804297 </v>
   <v>       0.00000000      -0.00251384       0.16804297 </v>
  </varray>
  <varray name="stress" >
   <v>       0.09580361       0.00000000       0.00000000 </v>
   <v>       0.00000000       0.12096350       0.00686771 </v>
   <v>       0.00000000       0.00686870      -0.45129237 </v>
  </varray>
  <energy>
   <i name="e_fr_energy">    -40.46048150 </i>
   <i name="e_wo_entrp">    -40.46821205 </i>
   <i name="e_0_energy">      0.02319166 </i>
  </energy>
  <time name="totalsc">   24.84   25.14</time>
  <eigenvalues>
   <array>
    <dimension dim="1">band</dimension>
    <dimension dim="2">kpoint</dimension>
    <dimension dim="3">spin</dimension>
    <field>eigene</field>
    <field>occ</field>
    <set>
     <set comment="spin 1">
      <set comment="kpoint 1">
       <r>  -18.1248    1.0000 </r>
       <r>  -14.5824    1.0000 </r>
       <r>  -10.0875    1.0000 </r>
       <r>  -10.0873    1.0000 </r>
       <r>   -8.4278    1.0000 </r>
       <r>   -7.6811    1.0001 </r>
       <r>   -7.6808    0.9999 </r>
       <r>   -0.5537    0.0000 </r>
       <r>    1.3861    0.0000 </r>
       <r>    1.4196    0.0000 </r>
       <r>    1.4487    0.0000 </r>
       <r>    1.5392    0.0000 </r>
      </set>
     </set>
    </set>
   </array>
  </eigenvalues>
  <separator name="orbital magnetization" >
   <v name="MAGDIPOLOUT">      0.00000000      0.00000000      0.00000000</v>
  </separator>
  <dos>
   <i name="efermi">     -7.51256008 </i>
   <total>
    <array>
     <dimension dim="1">gridpoints</dimension>
     <dimension dim="2">spin</dimension>
     <field>energy</field>
     <field>total</field>
     <field>integrated</field>
     <set>
      <set comment="spin 1">
       <r>   -20.1248     0.0000     0.0000 </r>
       <r>   -20.0460     0.0000     0.0000 </r>
       <r>   -19.9671     0.0000     0.0000 </r>
       <r>   -19.8882     0.0000     0.0000 </r>
       <r>   -19.8093     0.0000     0.0000 </r>
       <r>   -19.7304     0.0000     0.0000 </r>
       <r>   -19.6516     0.0000     0.0000 </r>
       <r>   -19.5727     0.0000     0.0000 </r>
       <r>   -19.4938     0.0000     0.0000 </r>
       <r>   -19.4149     0.0000     0.0000 </r>
       <r>   -19.3360     0.0000     0.0000 </r>
       <r>   -19.2572     0.0000     0.0000 </r>
       <r>   -19.1783     0.0000     0.0000 </r>
       <r>   -19.0994     0.0000     0.0000 </r>
       <r>   -19.0205     0.0000     0.0000 </r>
       <r>   -18.9416     0.0000     0.0000 </r>
       <r>   -18.8628     0.0000     0.0000 </r>
       <r>   -18.7839    -0.0004     0.0000 </r>
       <r>   -18.7050    -0.0037    -0.0003 </r>
       <r>   -18.6261    -0.0245    -0.0023 </r>
       <r>   -18.5472    -0.1103    -0.0110 </r>
       <r>   -18.4684    -0.3122    -0.0356 </r>
       <r>   -18.3895    -0.4150    -0.0683 </r>
       <r>   -18.3106     0.4586    -0.0321 </r>
       <r>   -18.2317     3.2372     0.2232 </r>
       <r>   -18.1528     6.8765     0.7656 </r>
       <r>   -18.0739     8.2393     1.4155 </r>
       <r>   -17.9951     5.9063     1.8814 </r>
       <r>   -17.9162     2.2396     2.0581 </r>
       <r>   -17.8373     0.0322     2.0606 </r>
       <r>   -17.7584    -0.4333     2.0265 </r>
       <r>   -17.6795    -0.2443     2.0072 </r>
       <r>   -17.6007    -0.0744     2.0013 </r>
       <r>   -17.5218    -0.0147     2.0002 </r>
       <r>   -17.4429    -0.0020     2.0000 </r>
       <r>   -17.3640    -0.0002     2.0000 </r>
       <r>   -17.2851     0.0000     2.0000 </r>
       <r>   -17.2063     0.0000     2.0000 </r>
       <r>   -17.1274     0.0000     2.0000 </r>
       <r>   -17.0485     0.0000     2.0000 </r>
       <r>   -16.9696     0.0000     2.0000 </r>
       <r>   -16.8907     0.0000     2.0000 </r>
       <r>   -16.8119     0.0000     2.0000 </r>
       <r>   -16.7330     0.0000     2.0000 </r>
       <r>   -16.6541     0.0000     2.0000 </r>
       <r>   -16.5752     0.0000     2.0000 </r>
       <r>   -16.4963     0.0000     2.0000 </r>
       <r>   -16.4175     0.0000     2.0000 </r>
       <r>   -16.3386     0.0000     2.0000 </r>
       <r>   -16.2597     0.0000     2.0000 </r>
       <r>   -16.1808     0.0000     2.0000 </r>
       <r>   -16.1019     0.0000     2.0000 </r>
       <r>   -16.0231     0.0000     2.0000 </r>
       <r>   -15.9442     0.0000     2.0000 </r>
       <r>   -15.8653     0.0000     2.0000 </r>
       <r>   -15.7864     0.0000     2.0000 </r>
       <r>   -15.7075     0.0000     2.0000 </r>
       <r>   -15.6287     0.0000     2.0000 </r>
       <r>   -15.5498     0.0000     2.0000 </r>
       <r>   -15.4709     0.0000     2.0000 </r>
       <r>   -15.3920     0.0000     2.0000 </r>
       <r>   -15.3131     0.0000     2.0000 </r>
       <r>   -15.2343    -0.0005     2.0000 </r>
       <r>   -15.1554    -0.0044     1.9996 </r>
       <r>   -15.0765    -0.0285     1.9974 </r>
       <r>   -14.9976    -0.1239     1.9876 </r>
       <r>   -14.9187    -0.3334     1.9613 </r>
       <r>   -14.8399    -0.3943     1.9302 </r>
       <r>   -14.7610     0.6280     1.9797 </r>
       <r>   -14.6821     3.5724     2.2615 </r>
       <r>   -14.6032     7.1430     2.8250 </r>
       <r>   -14.5243     8.1677     3.4692 </r>
       <r>   -14.4455     5.5737     3.9089 </r>
       <r>   -14.3666     1.9541     4.0630 </r>
       <r>   -14.2877    -0.0684     4.0576 </r>
       <r>   -14.2088    -0.4273     4.0239 </r>
       <r>   -14.1299    -0.2238     4.0063 </r>
       <r>   -14.0511    -0.0652     4.0011 </r>
       <r>   -13.9722    -0.0124     4.0001 </r>
       <r>   -13.8933    -0.0016     4.0000 </r>
       <r>   -13.8144    -0.0001     4.0000 </r>
       <r>   -13.7355     0.0000     4.0000 </r>
       <r>   -13.6567     0.0000     4.0000 </r>
       <r>   -13.5778     0.0000     4.0000 </r>
       <r>   -13.4989     0.0000     4.0000 </r>
       <r>   -13.4200     0.0000     4.0000 </r>
       <r>   -13.3411     0.0000     4.0000 </r>
       <r>   -13.2623     0.0000     4.0000 </r>
       <r>   -13.1834     0.0000     4.0000 </r>
       <r>   -13.1045     0.0000     4.0000 </r>
       <r>   -13.0256     0.0000     4.0000 </r>
       <r>   -12.9467     0.0000     4.0000 </r>
       <r>   -12.8679     0.0000     4.0000 </r>
       <r>   -12.7890     0.0000     4.0000 </r>
       <r>   -12.7101     0.0000     4.0000 </r>
       <r>   -12.6312     0.0000     4.0000 </r>
       <r>   -12.5523     0.0000     4.0000 </r>
       <r>   -12.4735     0.0000     4.0000 </r>
       <r>   -12.3946     0.0000     4.0000 </r>
       <r>   -12.3157     0.0000     4.0000 </r>
       <r>   -12.2368     0.0000     4.0000 </r>
       <r>   -12.1579     0.0000     4.0000 </r>
       <r>   -12.0791     0.0000     4.0000 </r>
       <r>   -12.0002     0.0000     4.0000 </r>
       <r>   -11.9213     0.0000     4.0000 </r>
       <r>   -11.8424     0.0000     4.0000 </r>
       <r>   -11.7635     0.0000     4.0000 </r>
       <r>   -11.6847     0.0000     4.0000 </r>
       <r>   -11.6058     0.0000     4.0000 </r>
       <r>   -11.5269     0.0000     4.0000 </r>
       <r>   -11.4480     0.0000     4.0000 </r>
       <r>   -11.3691     0.0000     4.0000 </r>
       <r>   -11.2903     0.0000     4.0000 </r>
       <r>   -11.2114     0.0000     4.0000 </r>
       <r>   -11.1325     0.0000     4.0000 </r>
       <r>   -11.0536     0.0000     4.0000 </r>
       <r>   -10.9747     0.0000     4.0000 </r>
       <r>   -10.8959     0.0000     4.0000 </r>
       <r>   -10.8170    -0.0001     4.0000 </r>
       <r>   -10.7381    -0.0010     3.9999 </r>
       <r>   -10.6592    -0.0091     3.9992 </r>
       <r>   -10.5803    -0.0584     3.9946 </r>
       <r>   -10.5015    -0.2522     3.9747 </r>
       <r>   -10.4226    -0.6734     3.9216 </r>
       <r>   -10.3437    -0.7805     3.8600 </r>
       <r>   -10.2648     1.3128     3.9636 </r>
       <r>   -10.1859     7.2524     4.5356 </r>
       <r>   -10.1071    14.3663     5.6688 </r>
       <r>   -10.0282    16.3066     6.9551 </r>
       <r>    -9.9493    11.0403     7.8260 </r>
       <r>    -9.8704     3.8207     8.1274 </r>
       <r>    -9.7915    -0.1660     8.1143 </r>
       <r>    -9.7127    -0.8520     8.0471 </r>
       <r>    -9.6338    -0.4413     8.0123 </r>
       <r>    -9.5549    -0.1278     8.0022 </r>
       <r>    -9.4760    -0.0241     8.0003 </r>
       <r>    -9.3971    -0.0031     8.0000 </r>
       <r>    -9.3183    -0.0003     8.0000 </r>
       <r>    -9.2394     0.0000     8.0000 </r>
       <r>    -9.1605     0.0000     8.0000 </r>
       <r>    -9.0816    -0.0005     8.0000 </r>
       <r>    -9.0027    -0.0042     7.9996 </r>
       <r>    -8.9239    -0.0274     7.9975 </r>
       <r>    -8.8450    -0.1200     7.9880 </r>
       <r>    -8.7661    -0.3276     7.9622 </r>
       <r>    -8.6872    -0.4008     7.9305 </r>
       <r>    -8.6083     0.5799     7.9763 </r>
       <r>    -8.5295     3.4800     8.2508 </r>
       <r>    -8.4506     7.0723     8.8086 </r>
       <r>    -8.3717     8.1904     9.4547 </r>
       <r>    -8.2928     5.6625     9.9014 </r>
       <r>    -8.2139     2.0069    10.0597 </r>
       <r>    -8.1351    -0.1690    10.0463 </r>
       <r>    -8.0562    -0.8679     9.9779 </r>
       <r>    -7.9773    -1.0801     9.8927 </r>
       <r>    -7.8984    -0.2463     9.8733 </r>
       <r>    -7.8195     3.7692    10.1706 </r>
       <r>    -7.7406    10.9911    11.0376 </r>
       <r>    -7.6618    16.2932    12.3228 </r>
       <r>    -7.5829    14.4014    13.4587 </r>
       <r>    -7.5040     7.3001    14.0346 </r>
       <r>    -7.4251     1.3383    14.1401 </r>
       <r>    -7.3462    -0.7767    14.0789 </r>
       <r>    -7.2674    -0.6763    14.0255 </r>
       <r>    -7.1885    -0.2542    14.0055 </r>
       <r>    -7.1096    -0.0591    14.0008 </r>
       <r>    -7.0307    -0.0092    14.0001 </r>
       <r>    -6.9518    -0.0010    14.0000 </r>
       <r>    -6.8730    -0.0001    14.0000 </r>
       <r>    -6.7941     0.0000    14.0000 </r>
       <r>    -6.7152     0.0000    14.0000 </r>
       <r>    -6.6363     0.0000    14.0000 </r>
       <r>    -6.5574     0.0000    14.0000 </r>
       <r>    -6.4786     0.0000    14.0000 </r>
       <r>    -6.3997     0.0000    14.0000 </r>
       <r>    -6.3208     0.0000    14.0000 </r>
       <r>    -6.2419     0.0000    14.0000 </r>
       <r>    -6.1630     0.0000    14.0000 </r>
       <r>    -6.0842     0.0000    14.0000 </r>
       <r>    -6.0053     0.0000    14.0000 </r>
       <r>    -5.9264     0.0000    14.0000 </r>
       <r>    -5.8475     0.0000    14.0000 </r>
       <r>    -5.7686     0.0000    14.0000 </r>
       <r>    -5.6898     0.0000    14.0000 </r>
       <r>    -5.6109     0.0000    14.0000 </r>
       <r>    -5.5320     0.0000    14.0000 </r>
       <r>    -5.4531     0.0000    14.0000 </r>
       <r>    -5.3742     0.0000    14.0000 </r>
       <r>    -5.2954     0.0000    14.0000 </r>
       <r>    -5.2165     0.0000    14.0000 </r>
       <r>    -5.1376     0.0000    14.0000 </r>
       <r>    -5.0587     0.0000    14.0000 </r>
       <r>    -4.9798     0.0000    14.0000 </r>
       <r>    -4.9010     0.0000    14.0000 </r>
       <r>    -4.8221     0.0000    14.0000 </r>
       <r>    -4.7432     0.0000    14.0000 </r>
       <r>    -4.6643     0.0000    14.0000 </r>
       <r>    -4.5854     0.0000    14.0000 </r>
       <r>    -4.5066     0.0000    14.0000 </r>
       <r>    -4.4277     0.0000    14.0000 </r>
       <r>    -4.3488     0.0000    14.0000 </r>
       <r>    -4.2699     0.0000    14.0000 </r>
       <r>    -4.1910     0.0000    14.0000 </r>
       <r>    -4.1122     0.0000    14.0000 </r>
       <r>    -4.0333     0.0000    14.0000 </r>
       <r>    -3.9544     0.0000    14.0000 </r>
       <r>    -3.8755     0.0000    14.0000 </r>
       <r>    -3.7966     0.0000    14.0000 </r>
       <r>    -3.7178     0.0000    14.0000 </r>
       <r>    -3.6389     0.0000    14.0000 </r>
       <r>    -3.5600     0.0000    14.0000 </r>
       <r>    -3.4811     0.0000    14.0000 </r>
       <r>    -3.4022     0.0000    14.0000 </r>
       <r>    -3.3234     0.0000    14.0000 </r>
       <r>    -3.2445     0.0000    14.0000 </r>
       <r>    -3.1656     0.0000    14.0000 </r>
       <r>    -3.0867     0.0000    14.0000 </r>
       <r>    -3.0078     0.0000    14.0000 </r>
       <r>    -2.9290     0.0000    14.0000 </r>
       <r>    -2.8501     0.0000    14.0000 </r>
       <r>    -2.7712     0.0000    14.0000 </r>
       <r>    -2.6923     0.0000    14.0000 </r>
       <r>    -2.6134     0.0000    14.0000 </r>
       <r>    -2.5346     0.0000    14.0000 </r>
       <r>    -2.4557     0.0000    14.0000 </r>
       <r>    -2.3768     0.0000    14.0000 </r>
       <r>    -2.2979     0.0000    14.0000 </r>
       <r>    -2.2190     0.0000    14.0000 </r>
       <r>    -2.1402     0.0000    14.0000 </r>
       <r>    -2.0613     0.0000    14.0000 </r>
       <r>    -1.9824     0.0000    14.0000 </r>
       <r>    -1.9035     0.0000    14.0000 </r>
       <r>    -1.8246     0.0000    14.0000 </r>
       <r>    -1.7458     0.0000    14.0000 </r>
       <r>    -1.6669     0.0000    14.0000 </r>
       <r>    -1.5880     0.0000    14.0000 </r>
       <r>    -1.5091     0.0000    14.0000 </r>
       <r>    -1.4302     0.0000    14.0000 </r>
       <r>    -1.3514     0.0000    14.0000 </r>
       <r>    -1.2725    -0.0001    14.0000 </r>
       <r>    -1.1936    -0.0007    13.9999 </r>
       <r>    -1.1147    -0.0060    13.9995 </r>
       <r>    -1.0358    -0.0366    13.9966 </r>
       <r>    -0.9570    -0.1489    13.9848 </r>
       <r>    -0.8781    -0.3670    13.9559 </r>
       <r>    -0.7992    -0.3398    13.9291 </r>
       <r>    -0.7203     0.9485    14.0039 </r>
       <r>    -0.6414     4.1437    14.3308 </r>
       <r>    -0.5626     7.5340    14.9250 </r>
       <r>    -0.4837     7.9758    15.5542 </r>
       <r>    -0.4048     5.0040    15.9489 </r>
       <r>    -0.3259     1.5147    16.0684 </r>
       <r>    -0.2470    -0.2038    16.0523 </r>
       <r>    -0.1682    -0.4087    16.0201 </r>
       <r>    -0.0893    -0.1916    16.0049 </r>
       <r>    -0.0104    -0.0521    16.0008 </r>
       <r>     0.0685    -0.0093    16.0001 </r>
       <r>     0.1474    -0.0012    16.0000 </r>
       <r>     0.2262    -0.0001    16.0000 </r>
       <r>     0.3051     0.0000    16.0000 </r>
       <r>     0.3840     0.0000    16.0000 </r>
       <r>     0.4629     0.0000    16.0000 </r>
       <r>     0.5418     0.0000    16.0000 </r>
       <r>     0.6206     0.0000    16.0000 </r>
       <r>     0.6995    -0.0002    16.0000 </r>
       <r>     0.7784    -0.0027    15.9998 </r>
       <r>     0.8573    -0.0219    15.9980 </r>
       <r>     0.9362    -0.1251    15.9882 </r>
       <r>     1.0150    -0.4830    15.9501 </r>
       <r>     1.0939    -1.1463    15.8597 </r>
       <r>     1.1728    -1.0575    15.7762 </r>
       <r>     1.2517     2.7603    15.9940 </r>
       <r>     1.3306    12.5377    16.9830 </r>
       <r>     1.4094    24.3504    18.9037 </r>
       <r>     1.4883    29.2401    21.2102 </r>
       <r>     1.5672    23.1616    23.0372 </r>
       <r>     1.6461    11.7178    23.9615 </r>
       <r>     1.7250     2.8650    24.1875 </r>
       <r>     1.8038    -0.7107    24.1314 </r>
       <r>     1.8827    -1.0063    24.0520 </r>
       <r>     1.9616    -0.4833    24.0139 </r>
       <r>     2.0405    -0.1430    24.0026 </r>
       <r>     2.1194    -0.0288    24.0004 </r>
       <r>     2.1982    -0.0041    24.0000 </r>
       <r>     2.2771    -0.0004    24.0000 </r>
       <r>     2.3560     0.0000    24.0000 </r>
       <r>     2.4349     0.0000    24.0000 </r>
       <r>     2.5138     0.0000    24.0000 </r>
       <r>     2.5926     0.0000    24.0000 </r>
       <r>     2.6715     0.0000    24.0000 </r>
       <r>     2.7504     0.0000    24.0000 </r>
       <r>     2.8293     0.0000    24.0000 </r>
       <r>     2.9082     0.0000    24.0000 </r>
       <r>     2.9871     0.0000    24.0000 </r>
       <r>     3.0659     0.0000    24.0000 </r>
       <r>     3.1448     0.0000    24.0000 </r>
       <r>     3.2237     0.0000    24.0000 </r>
       <r>     3.3026     0.0000    24.0000 </r>
       <r>     3.3815     0.0000    24.0000 </r>
       <r>     3.4603     0.0000    24.0000 </r>
       <r>     3.5392     0.0000    24.0000 </r>
      </set>
     </set>
    </array>
   </total>
  </dos>
 </calculation>
 <structure name="finalpos" >
  <crystal>
   <varray name="basis" >
    <v>       8.00000000       0.00000000       0.00000000 </v>
    <v>       0.00000000       8.00000000       0.00000000 </v>
    <v>       0.00000000       0.00000000       8.00000000 </v>
   </varray>
   <i name="volume">    512.00000000 </i>
   <varray name="rec_basis" >
    <v>       0.12500000       0.00000000       0.00000000 </v>
    <v>       0.00000000       0.12500000       0.00000000 </v>
    <v>       0.00000000       0.00000000       0.12500000 </v>
   </varray>
  </crystal>
  <varray name="positions" >
   <v>       0.50000000       0.62736963       0.64465362 </v>
   <v>       0.38969462       0.43631513       0.64465362 </v>
   <v>       0.61030538       0.43631513       0.64465362 </v>
   <v>       0.50000000       0.37263037       0.35534638 </v>
   <v>       0.38969462       0.56368487       0.35534638 </v>
   <v>       0.61030538       0.56368487       0.35534638 </v>
   <v>       0.50000000       0.50000000       0.59527612 </v>
   <v>       0.50000000       0.50000000       0.40472388 </v>
  </varray>
 </structure>
</modeling>
