unknown system                          
           1
     8.000000    0.000000    0.000000
     0.000000    8.000000    0.000000
     0.000000    0.000000    8.000000
   H    C 
   6   2
Direct configuration=     1
   0.50000000  0.62736963  0.64465362
   0.38969462  0.43631513  0.64465362
   0.61030538  0.43631513  0.64465362
   0.50000000  0.37263037  0.35534638
   0.38969462  0.56368487  0.35534638
   0.61030538  0.56368487  0.35534638
   0.50000000  0.50000000  0.59527612
   0.50000000  0.50000000  0.40472388
