 running on    1 nodes
 distr:  one band on    1 nodes,    1 groups
 vasp.5.2.12 11Nov11 complex                                                    
  
 POSCAR found :  2 types and       5 ions
 LDA part: xc-table for Pade appr. of Perdew
 POSCAR, INCAR and KPOINTS ok, starting setup
 WARNING: small aliasing (wrap around) errors must be expected
 FFT: planning ...(           2 )
 WAVECAR not read
 entering main loop
       N       E                     dE             d eps       ncg     rms          rms(c)
DAV:   1     0.283235311862E+03    0.28324E+03   -0.83361E+03    40   0.829E+02
DAV:   2     0.349112075094E+02   -0.24832E+03   -0.24513E+03    64   0.188E+02
DAV:   3    -0.161003774082E+02   -0.51012E+02   -0.50808E+02    48   0.112E+02
DAV:   4    -0.175687282213E+02   -0.14684E+01   -0.14655E+01    44   0.241E+01
DAV:   5    -0.176174559004E+02   -0.48728E-01   -0.48723E-01    60   0.391E+00    0.447E+00
DAV:   6    -0.173700486836E+02    0.24741E+00   -0.24546E-01    48   0.299E+00    0.253E+00
DAV:   7    -0.172920555541E+02    0.77993E-01   -0.20511E-01    40   0.262E+00    0.456E-01
DAV:   8    -0.172924127745E+02   -0.35722E-03   -0.10946E-02    56   0.691E-01    0.186E-01
DAV:   9    -0.172935001096E+02   -0.10873E-02   -0.12224E-03    40   0.227E-01    0.577E-02
DAV:  10    -0.172945299620E+02   -0.10299E-02   -0.24326E-04    32   0.104E-01    0.171E-02
DAV:  11    -0.172951970060E+02   -0.66704E-03   -0.72385E-05    24   0.533E-02    0.147E-02
DAV:  12    -0.172959171298E+02   -0.72012E-03   -0.81853E-05    24   0.481E-02    0.518E-03
DAV:  13    -0.172960207401E+02   -0.10361E-03   -0.14315E-05    24   0.226E-02    0.263E-03
DAV:  14    -0.172960701472E+02   -0.49407E-04   -0.44938E-06    24   0.129E-02
   1 F= -.17296070E+02 E0= -.17296070E+02  d E =-.172961E+02
 curvature:   0.00 expect dE= 0.000E+00 dE for cont linesearch  0.000E+00
 trial: gam= 0.00000 g(F)=  0.710E-02 g(S)=  0.000E+00 ort = 0.000E+00 (trialstep = 0.100E+01)
 search vector abs. value=  0.710E-02
 bond charge predicted
       N       E                     dE             d eps       ncg     rms          rms(c)
DAV:   1    -0.172965986217E+02   -0.57788E-03   -0.62578E-01    40   0.444E+00    0.136E-01
DAV:   2    -0.172988170204E+02   -0.22184E-02   -0.25689E-02    48   0.112E+00    0.109E-01
DAV:   3    -0.172987140407E+02    0.10298E-03   -0.55477E-04    48   0.171E-01    0.687E-02
DAV:   4    -0.172986805173E+02    0.33523E-04   -0.20474E-04    32   0.928E-02
   2 F= -.17298681E+02 E0= -.17298681E+02  d E =-.261037E-02
 trial-energy change:   -0.002610  1 .order   -0.002894   -0.007102    0.001315
 step:   0.8438(harm=  0.8438)  dis= 0.00451  next Energy=   -17.299066 (dE=-0.300E-02)
 bond charge predicted
       N       E                     dE             d eps       ncg     rms          rms(c)
DAV:   1    -0.172988121574E+02   -0.98117E-04   -0.17068E-02    48   0.728E-01    0.192E-02
DAV:   2    -0.172988684599E+02   -0.56302E-04   -0.71351E-04    48   0.189E-01
   3 F= -.17298868E+02 E0= -.17298868E+02  d E =-.279831E-02
 curvature:  -0.42 expect dE=-0.881E-05 dE for cont linesearch -0.881E-05
 trial: gam= 0.00000 g(F)=  0.209E-04 g(S)=  0.000E+00 ort =-0.385E-03 (trialstep = 0.969E+00)
 search vector abs. value=  0.209E-04
 reached required accuracy - stopping structural energy minimisation
 writing wavefunctions
NPROCS =  1
