   5   5   0   0
  0.1024000E+03  0.8000000E-09  0.8000000E-09  0.8000000E-09  0.5000000E-15
  1.000000000000000E-004
  CAR 
 unknown system                          
      2.43662339    -25.00633425  301     -5.06409437      1.00000000
    -25.006  0.0000E+00  0.0000E+00
    -24.915  0.0000E+00  0.0000E+00
    -24.823  0.0000E+00  0.0000E+00
    -24.732  0.0000E+00  0.0000E+00
    -24.640  0.0000E+00  0.0000E+00
    -24.549  0.0000E+00  0.0000E+00
    -24.457  0.0000E+00  0.0000E+00
    -24.366  0.0000E+00  0.0000E+00
    -24.275  0.0000E+00  0.0000E+00
    -24.183  0.1214E-15  0.1110E-16
    -24.092  0.1808E-13  0.1665E-14
    -24.000  0.2290E-11  0.2111E-12
    -23.909  0.1912E-09  0.1770E-10
    -23.817  0.1058E-07  0.9852E-09
    -23.726  0.3881E-06  0.3649E-07
    -23.634  0.9454E-05  0.9013E-06
    -23.543  0.1530E-03  0.1490E-04
    -23.451  0.1647E-02  0.1656E-03
    -23.360  0.1180E-01  0.1245E-02
    -23.268  0.5634E-01  0.6399E-02
    -23.177  0.1793E+00  0.2280E-01
    -23.085  0.3809E+00  0.5765E-01
    -22.994  0.5399E+00  0.1070E+00
    -22.902  0.5109E+00  0.1538E+00
    -22.811  0.3228E+00  0.1833E+00
    -22.719  0.1361E+00  0.1958E+00
    -22.628  0.3828E-01  0.1993E+00
    -22.536  0.7179E-02  0.1999E+00
    -22.445  0.8966E-03  0.2000E+00
    -22.354  0.7453E-04  0.2000E+00
    -22.262  0.4119E-05  0.2000E+00
    -22.171  0.1512E-06  0.2000E+00
    -22.079  0.3684E-08  0.2000E+00
    -21.988  0.5952E-10  0.2000E+00
    -21.896  0.6374E-12  0.2000E+00
    -21.805  0.4369E-14  0.2000E+00
    -21.713  0.0000E+00  0.2000E+00
    -21.622  0.0000E+00  0.2000E+00
    -21.530  0.0000E+00  0.2000E+00
    -21.439  0.0000E+00  0.2000E+00
    -21.347  0.0000E+00  0.2000E+00
    -21.256  0.0000E+00  0.2000E+00
    -21.164  0.0000E+00  0.2000E+00
    -21.073  0.0000E+00  0.2000E+00
    -20.981  0.2549E-14  0.2000E+00
    -20.890  0.4056E-12  0.2000E+00
    -20.798  0.4328E-10  0.2000E+00
    -20.707  0.3059E-08  0.2000E+00
    -20.615  0.1433E-06  0.2000E+00
    -20.524  0.4454E-05  0.2000E+00
    -20.433  0.9195E-04  0.2000E+00
    -20.341  0.1262E-02  0.2001E+00
    -20.250  0.1152E-01  0.2012E+00
    -20.158  0.7000E-01  0.2076E+00
    -20.067  0.2836E+00  0.2335E+00
    -19.975  0.7662E+00  0.3036E+00
    -19.884  0.1382E+01  0.4300E+00
    -19.792  0.1663E+01  0.5821E+00
    -19.701  0.1336E+01  0.7044E+00
    -19.609  0.7168E+00  0.7699E+00
    -19.518  0.2566E+00  0.7934E+00
    -19.426  0.6125E-01  0.7990E+00
    -19.335  0.9744E-02  0.7999E+00
    -19.243  0.1032E-02  0.8000E+00
    -19.152  0.7274E-04  0.8000E+00
    -19.060  0.3407E-05  0.8000E+00
    -18.969  0.1060E-06  0.8000E+00
    -18.877  0.2186E-08  0.8000E+00
    -18.786  0.2991E-10  0.8000E+00
    -18.694  0.2709E-12  0.8000E+00
    -18.603  0.1456E-14  0.8000E+00
    -18.512  0.0000E+00  0.8000E+00
    -18.420  0.0000E+00  0.8000E+00
    -18.329  0.0000E+00  0.8000E+00
    -18.237  0.0000E+00  0.8000E+00
    -18.146  0.0000E+00  0.8000E+00
    -18.054  0.0000E+00  0.8000E+00
    -17.963  0.0000E+00  0.8000E+00
    -17.871  0.0000E+00  0.8000E+00
    -17.780  0.0000E+00  0.8000E+00
    -17.688  0.0000E+00  0.8000E+00
    -17.597  0.0000E+00  0.8000E+00
    -17.505  0.0000E+00  0.8000E+00
    -17.414  0.0000E+00  0.8000E+00
    -17.322  0.0000E+00  0.8000E+00
    -17.231  0.0000E+00  0.8000E+00
    -17.139  0.0000E+00  0.8000E+00
    -17.048  0.0000E+00  0.8000E+00
    -16.956  0.0000E+00  0.8000E+00
    -16.865  0.0000E+00  0.8000E+00
    -16.773  0.0000E+00  0.8000E+00
    -16.682  0.0000E+00  0.8000E+00
    -16.590  0.0000E+00  0.8000E+00
    -16.499  0.0000E+00  0.8000E+00
    -16.408  0.0000E+00  0.8000E+00
    -16.316  0.0000E+00  0.8000E+00
    -16.225  0.0000E+00  0.8000E+00
    -16.133  0.0000E+00  0.8000E+00
    -16.042  0.0000E+00  0.8000E+00
    -15.950  0.0000E+00  0.8000E+00
    -15.859  0.0000E+00  0.8000E+00
    -15.767  0.0000E+00  0.8000E+00
    -15.676  0.0000E+00  0.8000E+00
    -15.584  0.0000E+00  0.8000E+00
    -15.493  0.0000E+00  0.8000E+00
    -15.401  0.0000E+00  0.8000E+00
    -15.310  0.3398E-14  0.8000E+00
    -15.218  0.4845E-12  0.8000E+00
    -15.127  0.4635E-10  0.8000E+00
    -15.035  0.2938E-08  0.8000E+00
    -14.944  0.1235E-06  0.8000E+00
    -14.852  0.3443E-05  0.8000E+00
    -14.761  0.6379E-04  0.8000E+00
    -14.669  0.7856E-03  0.8001E+00
    -14.578  0.6439E-02  0.8007E+00
    -14.487  0.3515E-01  0.8039E+00
    -14.395  0.1279E+00  0.8156E+00
    -14.304  0.3105E+00  0.8440E+00
    -14.212  0.5031E+00  0.8900E+00
    -14.121  0.5441E+00  0.9398E+00
    -14.029  0.3929E+00  0.9757E+00
    -13.938  0.1894E+00  0.9930E+00
    -13.846  0.6089E-01  0.9986E+00
    -13.755  0.1306E-01  0.9998E+00
    -13.663  0.1865E-02  0.1000E+01
    -13.572  0.1774E-03  0.1000E+01
    -13.480  0.1122E-04  0.1000E+01
    -13.389  0.4716E-06  0.1000E+01
    -13.297  0.1316E-07  0.1000E+01
    -13.206  0.2435E-09  0.1000E+01
    -13.114  0.2987E-11  0.1000E+01
    -13.023  0.2427E-13  0.1000E+01
    -12.931  0.0000E+00  0.1000E+01
    -12.840  0.0000E+00  0.1000E+01
    -12.748  0.0000E+00  0.1000E+01
    -12.657  0.0000E+00  0.1000E+01
    -12.566  0.0000E+00  0.1000E+01
    -12.474  0.0000E+00  0.1000E+01
    -12.383  0.0000E+00  0.1000E+01
    -12.291  0.0000E+00  0.1000E+01
    -12.200  0.0000E+00  0.1000E+01
    -12.108  0.1092E-14  0.1000E+01
    -12.017  0.2126E-12  0.1000E+01
    -11.925  0.2393E-10  0.1000E+01
    -11.834  0.1786E-08  0.1000E+01
    -11.742  0.8832E-07  0.1000E+01
    -11.651  0.2898E-05  0.1000E+01
    -11.559  0.6313E-04  0.1000E+01
    -11.468  0.9141E-03  0.1000E+01
    -11.376  0.8805E-02  0.1001E+01
    -11.285  0.5647E-01  0.1006E+01
    -11.193  0.2413E+00  0.1028E+01
    -11.102  0.6878E+00  0.1091E+01
    -11.010  0.1308E+01  0.1211E+01
    -10.919  0.1661E+01  0.1363E+01
    -10.827  0.1408E+01  0.1491E+01
    -10.736  0.7964E+00  0.1564E+01
    -10.645  0.3007E+00  0.1592E+01
    -10.553  0.7573E-01  0.1599E+01
    -10.462  0.1271E-01  0.1600E+01
    -10.370  0.1421E-02  0.1600E+01
    -10.279  0.1057E-03  0.1600E+01
    -10.187  0.5223E-05  0.1600E+01
    -10.096  0.1715E-06  0.1600E+01
    -10.004  0.3735E-08  0.1600E+01
     -9.913  0.5394E-10  0.1600E+01
     -9.821  0.5163E-12  0.1600E+01
     -9.730  0.2913E-14  0.1600E+01
     -9.638  0.0000E+00  0.1600E+01
     -9.547  0.0000E+00  0.1600E+01
     -9.455  0.0000E+00  0.1600E+01
     -9.364  0.0000E+00  0.1600E+01
     -9.272  0.0000E+00  0.1600E+01
     -9.181  0.0000E+00  0.1600E+01
     -9.089  0.0000E+00  0.1600E+01
     -8.998  0.0000E+00  0.1600E+01
     -8.906  0.0000E+00  0.1600E+01
     -8.815  0.0000E+00  0.1600E+01
     -8.724  0.7282E-15  0.1600E+01
     -8.632  0.1282E-12  0.1600E+01
     -8.541  0.1455E-10  0.1600E+01
     -8.449  0.1095E-08  0.1600E+01
     -8.358  0.5460E-07  0.1600E+01
     -8.266  0.1807E-05  0.1600E+01
     -8.175  0.3969E-04  0.1600E+01
     -8.083  0.5795E-03  0.1600E+01
     -7.992  0.5628E-02  0.1601E+01
     -7.900  0.3639E-01  0.1604E+01
     -7.809  0.1568E+00  0.1618E+01
     -7.717  0.4507E+00  0.1659E+01
     -7.626  0.8642E+00  0.1739E+01
     -7.534  0.1106E+01  0.1840E+01
     -7.443  0.9469E+00  0.1926E+01
     -7.351  0.5525E+00  0.1977E+01
     -7.260  0.2831E+00  0.2003E+01
     -7.168  0.3590E+00  0.2036E+01
     -7.077  0.8158E+00  0.2110E+01
     -6.985  0.1417E+01  0.2240E+01
     -6.894  0.1660E+01  0.2392E+01
     -6.803  0.1298E+01  0.2510E+01
     -6.711  0.6779E+00  0.2573E+01
     -6.620  0.2363E+00  0.2594E+01
     -6.528  0.5622E-01  0.2599E+01
     -6.437  0.2059E-01  0.2601E+01
     -6.345  0.7364E-01  0.2608E+01
     -6.254  0.2919E+00  0.2635E+01
     -6.162  0.7810E+00  0.2706E+01
     -6.071  0.1394E+01  0.2834E+01
     -5.979  0.1662E+01  0.2986E+01
     -5.888  0.1323E+01  0.3107E+01
     -5.796  0.7026E+00  0.3171E+01
     -5.705  0.2490E+00  0.3194E+01
     -5.613  0.5887E-01  0.3199E+01
     -5.522  0.9273E-02  0.3200E+01
     -5.430  0.9727E-03  0.3200E+01
     -5.339  0.6788E-04  0.3200E+01
     -5.247  0.3148E-05  0.3200E+01
     -5.156  0.9693E-07  0.3200E+01
     -5.064  0.1980E-08  0.3200E+01
     -4.973  0.2682E-10  0.3200E+01
     -4.881  0.2403E-12  0.3200E+01
     -4.790  0.1456E-14  0.3200E+01
     -4.699  0.0000E+00  0.3200E+01
     -4.607  0.0000E+00  0.3200E+01
     -4.516  0.0000E+00  0.3200E+01
     -4.424  0.0000E+00  0.3200E+01
     -4.333  0.0000E+00  0.3200E+01
     -4.241  0.0000E+00  0.3200E+01
     -4.150  0.0000E+00  0.3200E+01
     -4.058  0.0000E+00  0.3200E+01
     -3.967  0.0000E+00  0.3200E+01
     -3.875  0.0000E+00  0.3200E+01
     -3.784  0.0000E+00  0.3200E+01
     -3.692  0.0000E+00  0.3200E+01
     -3.601  0.0000E+00  0.3200E+01
     -3.509  0.0000E+00  0.3200E+01
     -3.418  0.0000E+00  0.3200E+01
     -3.326  0.0000E+00  0.3200E+01
     -3.235  0.0000E+00  0.3200E+01
     -3.143  0.0000E+00  0.3200E+01
     -3.052  0.0000E+00  0.3200E+01
     -2.960  0.0000E+00  0.3200E+01
     -2.869  0.0000E+00  0.3200E+01
     -2.778  0.0000E+00  0.3200E+01
     -2.686  0.0000E+00  0.3200E+01
     -2.595  0.0000E+00  0.3200E+01
     -2.503  0.0000E+00  0.3200E+01
     -2.412  0.0000E+00  0.3200E+01
     -2.320  0.7646E-14  0.3200E+01
     -2.229  0.1031E-11  0.3200E+01
     -2.137  0.9233E-10  0.3200E+01
     -2.046  0.5481E-08  0.3200E+01
     -1.954  0.2157E-06  0.3200E+01
     -1.863  0.5637E-05  0.3200E+01
     -1.771  0.9783E-04  0.3200E+01
     -1.680  0.1129E-02  0.3200E+01
     -1.588  0.8673E-02  0.3201E+01
     -1.497  0.4438E-01  0.3205E+01
     -1.405  0.1514E+00  0.3219E+01
     -1.314  0.3446E+00  0.3250E+01
     -1.222  0.5234E+00  0.3298E+01
     -1.131  0.5308E+00  0.3347E+01
     -1.039  0.3593E+00  0.3380E+01
     -0.948  0.1624E+00  0.3394E+01
     -0.857  0.4895E-01  0.3399E+01
     -0.765  0.9838E-02  0.3400E+01
     -0.674  0.1317E-02  0.3400E+01
     -0.582  0.1175E-03  0.3400E+01
     -0.491  0.9224E-05  0.3400E+01
     -0.399  0.4867E-04  0.3400E+01
     -0.308  0.6871E-03  0.3400E+01
     -0.216  0.6491E-02  0.3401E+01
     -0.125  0.4086E-01  0.3404E+01
     -0.033  0.1718E+00  0.3420E+01
      0.058  0.4848E+00  0.3464E+01
      0.150  0.9289E+00  0.3549E+01
      0.241  0.1245E+01  0.3663E+01
      0.333  0.1244E+01  0.3777E+01
      0.424  0.1022E+01  0.3871E+01
      0.516  0.7291E+00  0.3937E+01
      0.607  0.4276E+00  0.3976E+01
      0.699  0.1870E+00  0.3994E+01
      0.790  0.5718E-01  0.3999E+01
      0.882  0.1186E-01  0.4000E+01
      0.973  0.1650E-02  0.4000E+01
      1.064  0.1531E-03  0.4000E+01
      1.156  0.9456E-05  0.4000E+01
      1.247  0.3881E-06  0.4000E+01
      1.339  0.1058E-07  0.4000E+01
      1.430  0.1912E-09  0.4000E+01
      1.522  0.2290E-11  0.4000E+01
      1.613  0.1821E-13  0.4000E+01
      1.705  0.0000E+00  0.4000E+01
      1.796  0.0000E+00  0.4000E+01
      1.888  0.0000E+00  0.4000E+01
      1.979  0.0000E+00  0.4000E+01
      2.071  0.0000E+00  0.4000E+01
      2.162  0.0000E+00  0.4000E+01
      2.254  0.0000E+00  0.4000E+01
      2.345  0.0000E+00  0.4000E+01
      2.437  0.0000E+00  0.4000E+01
