    5    5   10    1
  0.1024000E+03  0.8000000E-09  0.8000000E-09  0.8000000E-09  0.5000000E-15
  1.000000000000000E-004
  CAR 
 unknown system                          
   32    1   20
 
  0.0000000E+00  0.0000000E+00  0.0000000E+00  0.1000000E+01
   1      -23.006334
   2      -19.841684
   3      -19.841684
   4      -19.841684
   5      -14.194355
   6      -10.956393
   7      -10.956393
   8      -10.956393
   9       -7.569898
  10       -7.569898
  11       -6.949585
  12       -6.949585
  13       -6.949585
  14       -6.030943
  15       -6.030943
  16       -6.030943
  17       -1.219272
  18        0.199290
  19        0.199290
  20        0.436623
