 vasp.5.2.12 11Nov11 complex                                                    
  
 executed on             LinuxIFC date 2012.10.31  21:35:03
 running on    1 nodes
 distr:  one band on    1 nodes,    1 groups


--------------------------------------------------------------------------------------------------------


 INCAR:
 POTCAR:   PAW_PBE C 08Apr2002                    
 POTCAR:    PAW_PBE Cl 17Jan2003                  
 POTCAR:   PAW_PBE C 08Apr2002                    
   VRHFIN =C: s2p2                                                              
   LEXCH  = PE                                                                  
   EATOM  =   147.1560 eV,   10.8157 Ry                                         
                                                                                
   TITEL  = PAW_PBE C 08Apr2002                                                 
   LULTRA =        F    use ultrasoft PP ?                                      
   IUNSCR =        0    unscreen: 0-lin 1-nonlin 2-no                           
   RPACOR =     .000    partial core radius                                     
   POMASS =   12.011; ZVAL   =    4.000    mass and valenz                      
   RCORE  =    1.500    outmost cutoff radius                                   
   RWIGS  =    1.630; RWIGS  =     .863    wigner-seitz radius (au A)           
   ENMAX  =  400.000; ENMIN  =  300.000 eV                                      
   ICORE  =        2    local potential                                         
   LCOR   =        T    correct aug charges                                     
   LPAW   =        T    paw PP                                                  
   EAUG   =  644.873                                                            
   DEXC   =     .000                                                            
   RMAX   =    2.266    core radius for proj-oper                               
   RAUG   =    1.300    factor for augmentation sphere                          
   RDEP   =    1.501    radius for radial grids                                 
   RDEPT  =    1.300    core radius for aug-charge                              
   QCUT   =   -5.516; QGAM   =   11.032    optimization parameters              
                                                                                
   Description                                                                  
     l     E      TYP  RCUT    TYP  RCUT                                        
     0   .000     23  1.200                                                     
     0   .000     23  1.200                                                     
     1   .000     23  1.500                                                     
     1  2.500     23  1.500                                                     
     2   .000      7  1.500                                                     
  local pseudopotential read in
  atomic valenz-charges read in
  non local Contribution for L=           0  read in
    real space projection operators read in
  non local Contribution for L=           0  read in
    real space projection operators read in
  non local Contribution for L=           1  read in
    real space projection operators read in
  non local Contribution for L=           1  read in
    real space projection operators read in
    PAW grid and wavefunctions read in
 
   number of l-projection  operators is LMAX  =           4
   number of lm-projection operators is LMMAX =           8
 
 POTCAR:    PAW_PBE Cl 17Jan2003                  
   VRHFIN =Cl: s2p5                                                             
   LEXCH  = PE                                                                  
   EATOM  =   409.7259 eV,   30.1140 Ry                                         
                                                                                
   TITEL  = PAW_PBE Cl 17Jan2003                                                
   LULTRA =        F    use ultrasoft PP ?                                      
   IUNSCR =        1    unscreen: 0-lin 1-nonlin 2-no                           
   RPACOR =    1.500    partial core radius                                     
   POMASS =   35.453; ZVAL   =    7.000    mass and valenz                      
   RCORE  =    1.900    outmost cutoff radius                                   
   RWIGS  =    2.100; RWIGS  =    1.111    wigner-seitz radius (au A)           
   ENMAX  =  280.000; ENMIN  =  196.854 eV                                      
   ICORE  =        2    local potential                                         
   LCOR   =        T    correct aug charges                                     
   LPAW   =        T    paw PP                                                  
   EAUG   =  356.192                                                            
   DEXC   =     .000                                                            
   RMAX   =    2.846    core radius for proj-oper                               
   RAUG   =    1.300    factor for augmentation sphere                          
   RDEP   =    2.020    radius for radial grids                                 
   QCUT   =   -4.392; QGAM   =    8.784    optimization parameters              
                                                                                
   Description                                                                  
     l     E      TYP  RCUT    TYP  RCUT                                        
     0   .000     23  1.900                                                     
     0   .000     23  1.900                                                     
     1   .000     23  1.900                                                     
     1   .000     23  1.900                                                     
     2   .000     23  1.900                                                     
  local pseudopotential read in
  partial core-charges read in
  atomic valenz-charges read in
  non local Contribution for L=           0  read in
    real space projection operators read in
  non local Contribution for L=           0  read in
    real space projection operators read in
  non local Contribution for L=           1  read in
    real space projection operators read in
  non local Contribution for L=           1  read in
    real space projection operators read in
    PAW grid and wavefunctions read in
 
   number of l-projection  operators is LMAX  =           4
   number of lm-projection operators is LMMAX =           8
 
 PAW_PBE C 08Apr2002                    :
 energy of atom  1       EATOM= -147.1560
 kinetic energy error for atom=    0.0854 (will be added to EATOM!!)
  PAW_PBE Cl 17Jan2003                  :
 energy of atom  2       EATOM= -409.7259
 kinetic energy error for atom=    0.0105 (will be added to EATOM!!)
 
 
 POSCAR:  C Cl                                   
  positions in cartesian coordinates
  No initial velocities read in
 exchange correlation table for  LEXCH =        8
   RHO(1)=    0.500       N(1)  =     2000
   RHO(2)=  100.500       N(2)  =     4000
 


--------------------------------------------------------------------------------------------------------


 ion  position               nearest neighbor table
   1  0.000  0.000  0.000-   2 1.77   3 1.77   4 1.77   5 1.77
   2  0.128  0.128  0.128-   1 1.77
   3  0.872  0.872  0.128-   1 1.77
   4  0.872  0.128  0.872-   1 1.77
   5  0.128  0.872  0.872-   1 1.77
 
  LATTYP: Found a simple cubic cell.
 ALAT       =     8.0000000000
  
  Lattice vectors:
  
 A1 = (   8.0000000000,   0.0000000000,   0.0000000000)
 A2 = (   0.0000000000,   8.0000000000,   0.0000000000)
 A3 = (   0.0000000000,   0.0000000000,   8.0000000000)
 Subroutine PRICEL returns:
 Original cell was already a primitive cell.
 

Analysis of symmetry for initial positions (statically):

 Routine SETGRP: Setting up the symmetry group for a 
 simple cubic supercell.


 Subroutine GETGRP returns: Found 24 space group operations
 (whereof 24 operations were pure point group operations)
 out of a pool of 48 trial point group operations.


The static configuration has the point symmetry T_d .

Analysis of symmetry for dynamics (positions and initial velocities):

 Subroutine DYNSYM returns: Found 24 space group operations
 (whereof 24 operations were pure point group operations)
 out of a pool of 24 trial space group operations
 (whereof 24 operations were pure point group operations)
 and found also     1 'primitive' translations


The dynamic configuration has the point symmetry T_d .
 
 
 KPOINTS: KPOINTS created by Atomic Simulation Env

Automatic generation of k-mesh.
 
 Subroutine IBZKPT returns following result:
 ===========================================
 
 Found      1 irreducible k-points:
 
 Following reciprocal coordinates:
            Coordinates               Weight
  0.000000  0.000000  0.000000      1.000000
 
 Following cartesian coordinates:
            Coordinates               Weight
  0.000000  0.000000  0.000000      1.000000
 


--------------------------------------------------------------------------------------------------------




 Dimension of arrays:
   k-points           NKPTS =      1   k-points in BZ     NKDIM =      1   number of bands    NBANDS=     20
   number of dos      NEDOS =    301   number of ions     NIONS =      5
   non local maximal  LDIM  =      4   non local SUM 2l+1 LMDIM =      8
   total plane-waves  NPLWV =  64000
   max r-space proj   IRMAX =      1   max aug-charges    IRDMAX=   3793
   dimension x,y,z NGX =    40 NGY =   40 NGZ =   40
   dimension x,y,z NGXF=    80 NGYF=   80 NGZF=   80
   support grid    NGXF=    80 NGYF=   80 NGZF=   80
   ions per type =               1   4
 NGX,Y,Z   is equivalent  to a cutoff of   8.31,  8.31,  8.31 a.u.
 NGXF,Y,Z  is equivalent  to a cutoff of  16.62, 16.62, 16.62 a.u.


 I would recommend the setting:
   dimension x,y,z NGX =    37 NGY =   37 NGZ =   37
 SYSTEM =  unknown system                          
 POSCAR =   C Cl                                   

 Startparameter for this run:
   NWRITE =      2    write-flag & timer
   PREC   = normal    normal or accurate (medium, high low for compatibility)
   ISTART =      0    job   : 0-new  1-cont  2-samecut
   ICHARG =      2    charge: 1-file 2-atom 10-const
   ISPIN  =      1    spin polarized calculation?
   LNONCOLLINEAR =      F non collinear calculations
   LSORBIT =      F    spin-orbit coupling
   INIWAV =      1    electr: 0-lowe 1-rand  2-diag
   LASPH  =      F    aspherical Exc in radial PAW
   METAGGA=      F    non-selfconsistent MetaGGA calc.

 Electronic Relaxation 1
   ENCUT  =  350.0 eV  25.72 Ry    5.07 a.u.  12.20 12.20 12.20*2*pi/ulx,y,z
   ENINI  =  350.0     initial cutoff
   ENAUG  =  644.9 eV  augmentation charge cutoff
   NELM   =     60;   NELMIN=  2; NELMDL= -5     # of ELM steps 
   EDIFF  = 0.1E-03   stopping-criterion for ELM
   LREAL  =      F    real-space projection
   NLSPLINE    = F    spline interpolate recip. space projectors
   LCOMPAT=      F    compatible to vasp.4.4
   GGA_COMPAT  = T    GGA compatible to vasp.4.4-vasp.4.6
   LMAXPAW     = -100 max onsite density
   LMAXMIX     =    2 max onsite mixed and CHGCAR
   VOSKOWN=      0    Vosko Wilk Nusair interpolation
   ROPT   =    0.00000   0.00000
 Ionic relaxation
   EDIFFG = 0.1E-02   stopping-criterion for IOM
   NSW    =     10    number of steps for IOM
   NBLOCK =      1;   KBLOCK =     10    inner block; outer block 
   IBRION =      2    ionic relax: 0-MD 1-quasi-New 2-CG
   NFREE  =      1    steps in history (QN), initial steepest desc. (CG)
   ISIF   =      2    stress and relaxation
   IWAVPR =     11    prediction:  0-non 1-charg 2-wave 3-comb
   ISYM   =      2    0-nonsym 1-usesym 2-fastsym
   LCORR  =      T    Harris-Foulkes like correction to forces

   POTIM  = 0.5000    time-step for ionic-motion
   TEIN   =    0.0    initial temperature
   TEBEG  =    0.0;   TEEND  =   0.0 temperature during run
   SMASS  =  -3.00    Nose mass-parameter (am)
   estimated Nose-frequenzy (Omega)   =  0.10E-29 period in steps =****** mass=  -0.146E-26a.u.
   SCALEE = 1.0000    scale energy and forces
   NPACO  =    256;   APACO  = 16.0  distance and # of slots for P.C.
   PSTRESS=    0.0 pullay stress

  Mass of Ions in am
   POMASS =  12.01 35.45
  Ionic Valenz
   ZVAL   =   4.00  7.00
  Atomic Wigner-Seitz radii
   RWIGS  =  -1.00 -1.00
  virtual crystal weights 
   VCA    =   1.00  1.00
   NELECT =      32.0000    total number of electrons
   NUPDOWN=      -1.0000    fix difference up-down

 DOS related values:
   EMIN   =  10.00;   EMAX   =-10.00  energy-range for DOS
   EFERMI =   0.00
   ISMEAR =     0;   SIGMA  =   0.20  broadening in eV -4-tet -1-fermi 0-gaus

 Electronic relaxation 2 (details)
   IALGO  =     38    algorithm
   LDIAG  =      T    sub-space diagonalisation (order eigenvalues)
   LSUBROT=      T    optimize rotation matrix (better conditioning)
   TURBO    =      0    0=normal 1=particle mesh
   IRESTART =      0    0=no restart 2=restart with 2 vectors
   NREBOOT  =      0    no. of reboots
   NMIN     =      0    reboot dimension
   EREF     =   0.00    reference energy to select bands
   IMIX   =      4    mixing-type and parameters
     AMIX     =   0.40;   BMIX     =  1.00
     AMIX_MAG =   1.60;   BMIX_MAG =  1.00
     AMIN     =   0.10
     WC   =   100.;   INIMIX=   1;  MIXPRE=   1

 Intra band minimization:
   WEIMIN = 0.0010     energy-eigenvalue tresh-hold
   EBREAK =  0.13E-05  absolut break condition
   DEPER  =   0.30     relativ break condition  

   TIME   =   0.40     timestep for ELM

  volume/ion in A,a.u.               =     102.40       691.03
  Fermi-wavevector in a.u.,A,eV,Ry     =   0.649683  1.227723  5.742856  0.422088
  Thomas-Fermi vector in A             =   1.718718
 
 Write flags
   LWAVE  =      T    write WAVECAR
   LCHARG =      T    write CHGCAR
   LVTOT  =      F    write LOCPOT, total local potential
   LVHAR  =      F    write LOCPOT, Hartree potential only
   LELF   =      F    write electronic localiz. function (ELF)
   LORBIT =      0    0 simple, 1 ext, 2 COOP (PROOUT)


 Dipole corrections
   LMONO  =      F    monopole corrections only (constant potential shift)
   LDIPOL =      F    correct potential (dipole corrections)
   IDIPOL =      0    1-x, 2-y, 3-z, 4-all directions 
   EPSILON=  1.0000000 bulk dielectric constant

 Exchange correlation treatment:
   GGA     =    --    GGA type
   LEXCH   =     8    internal setting for exchange type
   VOSKOWN=      0    Vosko Wilk Nusair interpolation
   LHFCALC =     F    Hartree Fock is set to
   LHFONE  =     F    Hartree Fock one center treatment
   AEXX    =    0.0000 exact exchange contribution

 Linear response parameters
   LEPSILON=     F    determine dielectric tensor
   LRPA    =     F    only Hartree local field effects (RPA)
   LNABLA  =     F    use nabla operator in PAW spheres
   LVEL    =     F    velocity operator in full k-point grid
   LINTERFAST=   F  fast interpolation
   KINTER  =     0    interpolate to denser k-point grid
   CSHIFT  =0.1000    complex shift for real part using Kramers Kronig
   OMEGAMAX=  -1.0    maximum frequency
   RTIME   =    0.100 relaxation time in fs

 Orbital magnetization related:
   ORBITALMAG=     F  switch on orbital magnetization
   LCHIMAG   =     F  perturbation theory with respect to B field
   DQ        =  0.001000  dq finite difference perturbation B field



--------------------------------------------------------------------------------------------------------


 conjugate gradient relaxation of ions
 charge density and potential will be updated during run
 non-spin polarized calculation
 Variant of blocked Davidson
 Davidson routine will perform the subspace rotation
 perform sub-space diagonalisation
    after iterative eigenvector-optimisation
 modified Broyden-mixing scheme, WC =      100.0
 initial mixing is a Kerker type mixing with AMIX =  0.4000 and BMIX =      1.0000
 Hartree-type preconditioning will be used
 using additional bands            4
 reciprocal scheme for non local part
 use partial core corrections
 calculate Harris-corrections to forces 
   (improved forces if not selfconsistent)
 use gradient corrections 
 use of overlap-Matrix (Vanderbilt PP)
 Gauss-broadening in eV      SIGMA  =   0.20


--------------------------------------------------------------------------------------------------------


  energy-cutoff  :      350.00
  volume of cell :      512.00
      direct lattice vectors                 reciprocal lattice vectors
     8.000000000  0.000000000  0.000000000     0.125000000  0.000000000  0.000000000
     0.000000000  8.000000000  0.000000000     0.000000000  0.125000000  0.000000000
     0.000000000  0.000000000  8.000000000     0.000000000  0.000000000  0.125000000

  length of vectors
     8.000000000  8.000000000  8.000000000     0.125000000  0.125000000  0.125000000


 
 k-points in units of 2pi/SCALE and weight: KPOINTS created by Atomic Simulation Env
   0.00000000  0.00000000  0.00000000       1.000
 
 k-points in reciprocal lattice and weights: KPOINTS created by Atomic Simulation Env
   0.00000000  0.00000000  0.00000000       1.000
 
 position of ions in fractional coordinates (direct lattice) 
   0.00000000  0.00000000  0.00000000
   0.12766750  0.12766750  0.12766750
   0.87233250  0.87233250  0.12766750
   0.87233250  0.12766750  0.87233250
   0.12766750  0.87233250  0.87233250
 
 position of ions in cartesian coordinates  (Angst):
   0.00000000  0.00000000  0.00000000
   1.02134000  1.02134000  1.02134000
   6.97866000  6.97866000  1.02134000
   6.97866000  1.02134000  6.97866000
   1.02134000  6.97866000  6.97866000
 


--------------------------------------------------------------------------------------------------------


 k-point  1 :  0.00000.00000.0000  plane waves:    7521

 maximum and minimum number of plane-waves per node :      7521     7521

 maximum number of plane-waves:      7521
 maximum index in each direction: 
   IXMAX=   12   IYMAX=   12   IZMAX=   12
   IXMIN=  -12   IYMIN=  -12   IZMIN=  -12

 WARNING: aliasing errors must be expected set NGX to  50 to avoid them
 WARNING: aliasing errors must be expected set NGY to  50 to avoid them
 WARNING: aliasing errors must be expected set NGZ to  50 to avoid them
 aliasing errors are usually negligible using standard VASP settings
 and one can safely disregard these warnings

 serial   3D FFT for wavefunctions
 parallel 3D FFT for charge:
    minimum data exchange during FFTs selected (reduces bandwidth)


 total amount of memory used by VASP on root node    83631. kBytes
========================================================================

   base      :      30000. kBytes
   nonl-proj :       1564. kBytes
   fftplans  :      17864. kBytes
   grid      :      31769. kBytes
   one-center:         15. kBytes
   wavefun   :       2419. kBytes
 
 Broyden mixing: mesh for mixing (old mesh)
   NGX = 25   NGY = 25   NGZ = 25
  (NGX  = 80   NGY  = 80   NGZ  = 80)
  gives a total of  15625 points

 initial charge density was supplied:
 charge density of overlapping atoms calculated
 number of electron      32.0000000 magnetization 
 keeping initial charge density in first step


--------------------------------------------------------------------------------------------------------


 Maximum index for augmentation-charges         3500 (set IRDMAX)


--------------------------------------------------------------------------------------------------------


 First call to EWALD:  gamma=   0.222
 Maximum number of real-space cells 3x 3x 3
 Maximum number of reciprocal cells 3x 3x 3

    FEWALD:  cpu time    0.00: real time    0.00


----------------------------------------- Iteration    1(   1)  ---------------------------------------


    POTLOK:  cpu time    1.00: real time    1.00
    SETDIJ:  cpu time    0.02: real time    0.02
     EDDAV:  cpu time    0.81: real time    0.81
       DOS:  cpu time    0.00: real time    0.00
    --------------------------------------------
      LOOP:  cpu time    1.82: real time    1.85

 eigenvalue-minimisations  :    40
 total energy-change (2. order) : 0.2832353E+03  (-0.8336136E+03)
 number of electron      32.0000000 magnetization 
 augmentation part       32.0000000 magnetization 

 Free energy of the ion-electron system (eV)
  ---------------------------------------------------
  alpha Z        PSCENC =         8.81598031
  Ewald energy   TEWEN  =       -81.24181609
  -1/2 Hartree   DENC   =     -1444.11011375
  -exchange  EXHF       =         0.00000000
  -V(xc)+E(xc)   XCENC  =        93.80984892
  PAW double counting   =       831.83787413     -833.44360687
  entropy T*S    EENTRO =        -0.03938977
  eigenvalues    EBANDS =       -78.32580106
  atomic energy  EATOM  =      1785.93233605
  ---------------------------------------------------
  free energy    TOTEN  =       283.23531186 eV

  energy without entropy =      283.27470163  energy(sigma->0) =      283.25500675


--------------------------------------------------------------------------------------------------------




----------------------------------------- Iteration    1(   2)  ---------------------------------------


     EDDAV:  cpu time    1.17: real time    1.18
       DOS:  cpu time    0.00: real time    0.00
    --------------------------------------------
      LOOP:  cpu time    1.17: real time    1.18

 eigenvalue-minimisations  :    64
 total energy-change (2. order) :-0.2483241E+03  (-0.2451276E+03)
 number of electron      32.0000000 magnetization 
 augmentation part       32.0000000 magnetization 

 Free energy of the ion-electron system (eV)
  ---------------------------------------------------
  alpha Z        PSCENC =         8.81598031
  Ewald energy   TEWEN  =       -81.24181609
  -1/2 Hartree   DENC   =     -1444.11011375
  -exchange  EXHF       =         0.00000000
  -V(xc)+E(xc)   XCENC  =        93.80984892
  PAW double counting   =       831.83787413     -833.44360687
  entropy T*S    EENTRO =         0.00000000
  eigenvalues    EBANDS =      -326.68929519
  atomic energy  EATOM  =      1785.93233605
  ---------------------------------------------------
  free energy    TOTEN  =        34.91120751 eV

  energy without entropy =       34.91120751  energy(sigma->0) =       34.91120751


--------------------------------------------------------------------------------------------------------




----------------------------------------- Iteration    1(   3)  ---------------------------------------


     EDDAV:  cpu time    0.97: real time    0.97
       DOS:  cpu time    0.00: real time    0.00
    --------------------------------------------
      LOOP:  cpu time    0.97: real time    0.98

 eigenvalue-minimisations  :    48
 total energy-change (2. order) :-0.5101158E+02  (-0.5080790E+02)
 number of electron      32.0000000 magnetization 
 augmentation part       32.0000000 magnetization 

 Free energy of the ion-electron system (eV)
  ---------------------------------------------------
  alpha Z        PSCENC =         8.81598031
  Ewald energy   TEWEN  =       -81.24181609
  -1/2 Hartree   DENC   =     -1444.11011375
  -exchange  EXHF       =         0.00000000
  -V(xc)+E(xc)   XCENC  =        93.80984892
  PAW double counting   =       831.83787413     -833.44360687
  entropy T*S    EENTRO =         0.00000000
  eigenvalues    EBANDS =      -377.70088010
  atomic energy  EATOM  =      1785.93233605
  ---------------------------------------------------
  free energy    TOTEN  =       -16.10037741 eV

  energy without entropy =      -16.10037741  energy(sigma->0) =      -16.10037741


--------------------------------------------------------------------------------------------------------




----------------------------------------- Iteration    1(   4)  ---------------------------------------


     EDDAV:  cpu time    0.88: real time    0.88
       DOS:  cpu time    0.00: real time    0.00
    --------------------------------------------
      LOOP:  cpu time    0.88: real time    0.89

 eigenvalue-minimisations  :    44
 total energy-change (2. order) :-0.1468351E+01  (-0.1465547E+01)
 number of electron      32.0000000 magnetization 
 augmentation part       32.0000000 magnetization 

 Free energy of the ion-electron system (eV)
  ---------------------------------------------------
  alpha Z        PSCENC =         8.81598031
  Ewald energy   TEWEN  =       -81.24181609
  -1/2 Hartree   DENC   =     -1444.11011375
  -exchange  EXHF       =         0.00000000
  -V(xc)+E(xc)   XCENC  =        93.80984892
  PAW double counting   =       831.83787413     -833.44360687
  entropy T*S    EENTRO =         0.00000000
  eigenvalues    EBANDS =      -379.16923092
  atomic energy  EATOM  =      1785.93233605
  ---------------------------------------------------
  free energy    TOTEN  =       -17.56872822 eV

  energy without entropy =      -17.56872822  energy(sigma->0) =      -17.56872822


--------------------------------------------------------------------------------------------------------




----------------------------------------- Iteration    1(   5)  ---------------------------------------


     EDDAV:  cpu time    1.13: real time    1.13
       DOS:  cpu time    0.00: real time    0.00
    CHARGE:  cpu time    0.16: real time    0.16
    MIXING:  cpu time    0.03: real time    0.03
    --------------------------------------------
      LOOP:  cpu time    1.31: real time    1.32

 eigenvalue-minimisations  :    60
 total energy-change (2. order) :-0.4872768E-01  (-0.4872309E-01)
 number of electron      31.9999983 magnetization 
 augmentation part       -3.8089930 magnetization 

 Broyden mixing:
  rms(total) = 0.44702E+00    rms(broyden)= 0.44680E+00
  rms(prec ) = 0.58425E+00
  weight for this iteration     100.00

 Free energy of the ion-electron system (eV)
  ---------------------------------------------------
  alpha Z        PSCENC =         8.81598031
  Ewald energy   TEWEN  =       -81.24181609
  -1/2 Hartree   DENC   =     -1444.11011375
  -exchange  EXHF       =         0.00000000
  -V(xc)+E(xc)   XCENC  =        93.80984892
  PAW double counting   =       831.83787413     -833.44360687
  entropy T*S    EENTRO =         0.00000000
  eigenvalues    EBANDS =      -379.21795859
  atomic energy  EATOM  =      1785.93233605
  ---------------------------------------------------
  free energy    TOTEN  =       -17.61745590 eV

  energy without entropy =      -17.61745590  energy(sigma->0) =      -17.61745590


--------------------------------------------------------------------------------------------------------




----------------------------------------- Iteration    1(   6)  ---------------------------------------


    POTLOK:  cpu time    0.84: real time    0.84
    SETDIJ:  cpu time    0.02: real time    0.02
     EDDAV:  cpu time    0.91: real time    0.91
       DOS:  cpu time    0.00: real time    0.00
    CHARGE:  cpu time    0.16: real time    0.16
    MIXING:  cpu time    0.03: real time    0.03
    --------------------------------------------
      LOOP:  cpu time    1.95: real time    1.96

 eigenvalue-minimisations  :    48
 total energy-change (2. order) : 0.2474072E+00  (-0.2454604E-01)
 number of electron      31.9999983 magnetization 
 augmentation part       -3.7871660 magnetization 

 Broyden mixing:
  rms(total) = 0.25348E+00    rms(broyden)= 0.25347E+00
  rms(prec ) = 0.32705E+00
  weight for this iteration     100.00

 eigenvalues of (default mixing * dielectric matrix)
  average eigenvalue GAMMA=   2.1590
  2.1590

 Free energy of the ion-electron system (eV)
  ---------------------------------------------------
  alpha Z        PSCENC =         8.81598031
  Ewald energy   TEWEN  =       -81.24181609
  -1/2 Hartree   DENC   =     -1449.15648570
  -exchange  EXHF       =         0.00000000
  -V(xc)+E(xc)   XCENC  =        94.21059521
  PAW double counting   =       865.76580152     -867.63508838
  entropy T*S    EENTRO =         0.00000000
  eigenvalues    EBANDS =      -374.06137159
  atomic energy  EATOM  =      1785.93233605
  ---------------------------------------------------
  free energy    TOTEN  =       -17.37004868 eV

  energy without entropy =      -17.37004868  energy(sigma->0) =      -17.37004868


--------------------------------------------------------------------------------------------------------




----------------------------------------- Iteration    1(   7)  ---------------------------------------


    POTLOK:  cpu time    0.89: real time    0.89
    SETDIJ:  cpu time    0.01: real time    0.02
     EDDAV:  cpu time    0.79: real time    0.79
       DOS:  cpu time    0.00: real time    0.00
    CHARGE:  cpu time    0.16: real time    0.16
    MIXING:  cpu time    0.03: real time    0.03
    --------------------------------------------
      LOOP:  cpu time    1.89: real time    1.90

 eigenvalue-minimisations  :    40
 total energy-change (2. order) : 0.7799313E-01  (-0.2051093E-01)
 number of electron      31.9999983 magnetization 
 augmentation part       -3.7640963 magnetization 

 Broyden mixing:
  rms(total) = 0.45586E-01    rms(broyden)= 0.45579E-01
  rms(prec ) = 0.63021E-01
  weight for this iteration     100.00

 eigenvalues of (default mixing * dielectric matrix)
  average eigenvalue GAMMA=   1.7571
  1.2954  2.2189

 Free energy of the ion-electron system (eV)
  ---------------------------------------------------
  alpha Z        PSCENC =         8.81598031
  Ewald energy   TEWEN  =       -81.24181609
  -1/2 Hartree   DENC   =     -1454.82409261
  -exchange  EXHF       =         0.00000000
  -V(xc)+E(xc)   XCENC  =        94.66683896
  PAW double counting   =       902.05120053     -904.15826606
  entropy T*S    EENTRO =         0.00000000
  eigenvalues    EBANDS =      -368.53423664
  atomic energy  EATOM  =      1785.93233605
  ---------------------------------------------------
  free energy    TOTEN  =       -17.29205555 eV

  energy without entropy =      -17.29205555  energy(sigma->0) =      -17.29205555


--------------------------------------------------------------------------------------------------------




----------------------------------------- Iteration    1(   8)  ---------------------------------------


    POTLOK:  cpu time    0.89: real time    0.89
    SETDIJ:  cpu time    0.01: real time    0.02
     EDDAV:  cpu time    0.99: real time    0.99
       DOS:  cpu time    0.00: real time    0.00
    CHARGE:  cpu time    0.15: real time    0.15
    MIXING:  cpu time    0.03: real time    0.03
    --------------------------------------------
      LOOP:  cpu time    2.08: real time    2.16

 eigenvalue-minimisations  :    56
 total energy-change (2. order) :-0.3572204E-03  (-0.1094572E-02)
 number of electron      31.9999983 magnetization 
 augmentation part       -3.7680866 magnetization 

 Broyden mixing:
  rms(total) = 0.18550E-01    rms(broyden)= 0.18549E-01
  rms(prec ) = 0.28181E-01
  weight for this iteration     100.00

 eigenvalues of (default mixing * dielectric matrix)
  average eigenvalue GAMMA=   1.7681
  1.1172  1.7798  2.4073

 Free energy of the ion-electron system (eV)
  ---------------------------------------------------
  alpha Z        PSCENC =         8.81598031
  Ewald energy   TEWEN  =       -81.24181609
  -1/2 Hartree   DENC   =     -1454.68200341
  -exchange  EXHF       =         0.00000000
  -V(xc)+E(xc)   XCENC  =        94.69520350
  PAW double counting   =       904.18796348     -906.30492499
  entropy T*S    EENTRO =         0.00000000
  eigenvalues    EBANDS =      -368.69515161
  atomic energy  EATOM  =      1785.93233605
  ---------------------------------------------------
  free energy    TOTEN  =       -17.29241277 eV

  energy without entropy =      -17.29241277  energy(sigma->0) =      -17.29241277


--------------------------------------------------------------------------------------------------------




----------------------------------------- Iteration    1(   9)  ---------------------------------------


    POTLOK:  cpu time    0.90: real time    0.90
    SETDIJ:  cpu time    0.01: real time    0.02
     EDDAV:  cpu time    0.79: real time    0.79
       DOS:  cpu time    0.00: real time    0.00
    CHARGE:  cpu time    0.15: real time    0.15
    MIXING:  cpu time    0.03: real time    0.03
    --------------------------------------------
      LOOP:  cpu time    1.89: real time    1.90

 eigenvalue-minimisations  :    40
 total energy-change (2. order) :-0.1087335E-02  (-0.1222410E-03)
 number of electron      31.9999983 magnetization 
 augmentation part       -3.7694179 magnetization 

 Broyden mixing:
  rms(total) = 0.57707E-02    rms(broyden)= 0.57689E-02
  rms(prec ) = 0.12416E-01
  weight for this iteration     100.00

 eigenvalues of (default mixing * dielectric matrix)
  average eigenvalue GAMMA=   1.7291
  1.0599  1.2898  2.3412  2.2254

 Free energy of the ion-electron system (eV)
  ---------------------------------------------------
  alpha Z        PSCENC =         8.81598031
  Ewald energy   TEWEN  =       -81.24181609
  -1/2 Hartree   DENC   =     -1454.72801243
  -exchange  EXHF       =         0.00000000
  -V(xc)+E(xc)   XCENC  =        94.71158761
  PAW double counting   =       905.02278360     -907.14475656
  entropy T*S    EENTRO =         0.00000000
  eigenvalues    EBANDS =      -368.66160259
  atomic energy  EATOM  =      1785.93233605
  ---------------------------------------------------
  free energy    TOTEN  =       -17.29350011 eV

  energy without entropy =      -17.29350011  energy(sigma->0) =      -17.29350011


--------------------------------------------------------------------------------------------------------




----------------------------------------- Iteration    1(  10)  ---------------------------------------


    POTLOK:  cpu time    0.83: real time    0.83
    SETDIJ:  cpu time    0.01: real time    0.02
     EDDAV:  cpu time    0.69: real time    0.69
       DOS:  cpu time    0.00: real time    0.00
    CHARGE:  cpu time    0.15: real time    0.15
    MIXING:  cpu time    0.03: real time    0.03
    --------------------------------------------
      LOOP:  cpu time    1.71: real time    1.75

 eigenvalue-minimisations  :    32
 total energy-change (2. order) :-0.1029852E-02  (-0.2432559E-04)
 number of electron      31.9999983 magnetization 
 augmentation part       -3.7691531 magnetization 

 Broyden mixing:
  rms(total) = 0.17135E-02    rms(broyden)= 0.17132E-02
  rms(prec ) = 0.62123E-02
  weight for this iteration     100.00

 eigenvalues of (default mixing * dielectric matrix)
  average eigenvalue GAMMA=   1.7259
  2.6465  2.3615  1.0530  1.0530  1.5156

 Free energy of the ion-electron system (eV)
  ---------------------------------------------------
  alpha Z        PSCENC =         8.81598031
  Ewald energy   TEWEN  =       -81.24181609
  -1/2 Hartree   DENC   =     -1455.04898077
  -exchange  EXHF       =         0.00000000
  -V(xc)+E(xc)   XCENC  =        94.71694267
  PAW double counting   =       904.86350484     -906.98494354
  entropy T*S    EENTRO =         0.00000000
  eigenvalues    EBANDS =      -368.34755343
  atomic energy  EATOM  =      1785.93233605
  ---------------------------------------------------
  free energy    TOTEN  =       -17.29452996 eV

  energy without entropy =      -17.29452996  energy(sigma->0) =      -17.29452996


--------------------------------------------------------------------------------------------------------




----------------------------------------- Iteration    1(  11)  ---------------------------------------


    POTLOK:  cpu time    0.98: real time    0.99
    SETDIJ:  cpu time    0.02: real time    0.08
     EDDAV:  cpu time    0.59: real time    0.59
       DOS:  cpu time    0.00: real time    0.00
    CHARGE:  cpu time    0.16: real time    0.16
    MIXING:  cpu time    0.03: real time    0.03
    --------------------------------------------
      LOOP:  cpu time    1.78: real time    1.87

 eigenvalue-minimisations  :    24
 total energy-change (2. order) :-0.6670440E-03  (-0.7238545E-05)
 number of electron      31.9999983 magnetization 
 augmentation part       -3.7690048 magnetization 

 Broyden mixing:
  rms(total) = 0.14739E-02    rms(broyden)= 0.14738E-02
  rms(prec ) = 0.38160E-02
  weight for this iteration     100.00

 eigenvalues of (default mixing * dielectric matrix)
  average eigenvalue GAMMA=   1.9029
  3.0853  2.5372  2.1901  1.0393  1.0393  1.5263

 Free energy of the ion-electron system (eV)
  ---------------------------------------------------
  alpha Z        PSCENC =         8.81598031
  Ewald energy   TEWEN  =       -81.24181609
  -1/2 Hartree   DENC   =     -1455.27701017
  -exchange  EXHF       =         0.00000000
  -V(xc)+E(xc)   XCENC  =        94.72296358
  PAW double counting   =       904.92738987     -907.04991383
  entropy T*S    EENTRO =         0.00000000
  eigenvalues    EBANDS =      -368.12512672
  atomic energy  EATOM  =      1785.93233605
  ---------------------------------------------------
  free energy    TOTEN  =       -17.29519701 eV

  energy without entropy =      -17.29519701  energy(sigma->0) =      -17.29519701


--------------------------------------------------------------------------------------------------------




----------------------------------------- Iteration    1(  12)  ---------------------------------------


    POTLOK:  cpu time    0.81: real time    0.81
    SETDIJ:  cpu time    0.01: real time    0.02
     EDDAV:  cpu time    0.59: real time    0.60
       DOS:  cpu time    0.00: real time    0.00
    CHARGE:  cpu time    0.16: real time    0.16
    MIXING:  cpu time    0.03: real time    0.03
    --------------------------------------------
      LOOP:  cpu time    1.61: real time    1.63

 eigenvalue-minimisations  :    24
 total energy-change (2. order) :-0.7201238E-03  (-0.8185316E-05)
 number of electron      31.9999983 magnetization 
 augmentation part       -3.7688925 magnetization 

 Broyden mixing:
  rms(total) = 0.51793E-03    rms(broyden)= 0.51789E-03
  rms(prec ) = 0.10986E-02
  weight for this iteration     100.00

 eigenvalues of (default mixing * dielectric matrix)
  average eigenvalue GAMMA=   1.9924
  4.3154  2.5717  2.2614  1.6427  1.0368  1.0592  1.0592

 Free energy of the ion-electron system (eV)
  ---------------------------------------------------
  alpha Z        PSCENC =         8.81598031
  Ewald energy   TEWEN  =       -81.24181609
  -1/2 Hartree   DENC   =     -1455.52360377
  -exchange  EXHF       =         0.00000000
  -V(xc)+E(xc)   XCENC  =        94.72733804
  PAW double counting   =       904.80420826     -906.92625276
  entropy T*S    EENTRO =         0.00000000
  eigenvalues    EBANDS =      -367.88410717
  atomic energy  EATOM  =      1785.93233605
  ---------------------------------------------------
  free energy    TOTEN  =       -17.29591713 eV

  energy without entropy =      -17.29591713  energy(sigma->0) =      -17.29591713


--------------------------------------------------------------------------------------------------------




----------------------------------------- Iteration    1(  13)  ---------------------------------------


    POTLOK:  cpu time    0.99: real time    0.99
    SETDIJ:  cpu time    0.01: real time    0.02
     EDDAV:  cpu time    0.57: real time    0.57
       DOS:  cpu time    0.00: real time    0.00
    CHARGE:  cpu time    0.17: real time    0.17
    MIXING:  cpu time    0.04: real time    0.04
    --------------------------------------------
      LOOP:  cpu time    1.79: real time    1.81

 eigenvalue-minimisations  :    24
 total energy-change (2. order) :-0.1036103E-03  (-0.1431452E-05)
 number of electron      31.9999983 magnetization 
 augmentation part       -3.7688950 magnetization 

 Broyden mixing:
  rms(total) = 0.26316E-03    rms(broyden)= 0.26316E-03
  rms(prec ) = 0.52256E-03
  weight for this iteration     100.00

 eigenvalues of (default mixing * dielectric matrix)
  average eigenvalue GAMMA=   2.2453
  5.7238  2.7783  2.5274  2.2771  1.5344  0.9813  1.0700  1.0700

 Free energy of the ion-electron system (eV)
  ---------------------------------------------------
  alpha Z        PSCENC =         8.81598031
  Ewald energy   TEWEN  =       -81.24181609
  -1/2 Hartree   DENC   =     -1455.55553298
  -exchange  EXHF       =         0.00000000
  -V(xc)+E(xc)   XCENC  =        94.72746925
  PAW double counting   =       904.76251948     -906.88396484
  entropy T*S    EENTRO =         0.00000000
  eigenvalues    EBANDS =      -367.85301192
  atomic energy  EATOM  =      1785.93233605
  ---------------------------------------------------
  free energy    TOTEN  =       -17.29602074 eV

  energy without entropy =      -17.29602074  energy(sigma->0) =      -17.29602074


--------------------------------------------------------------------------------------------------------




----------------------------------------- Iteration    1(  14)  ---------------------------------------


    POTLOK:  cpu time    1.02: real time    1.02
    SETDIJ:  cpu time    0.01: real time    0.02
     EDDAV:  cpu time    0.60: real time    0.60
       DOS:  cpu time    0.00: real time    0.00
    --------------------------------------------
      LOOP:  cpu time    1.64: real time    1.66

 eigenvalue-minimisations  :    24
 total energy-change (2. order) :-0.4940717E-04  (-0.4493766E-06)
 number of electron      31.9999983 magnetization 
 augmentation part       -3.7688950 magnetization 

 Free energy of the ion-electron system (eV)
  ---------------------------------------------------
  alpha Z        PSCENC =         8.81598031
  Ewald energy   TEWEN  =       -81.24181609
  -1/2 Hartree   DENC   =     -1455.56437208
  -exchange  EXHF       =         0.00000000
  -V(xc)+E(xc)   XCENC  =        94.72728142
  PAW double counting   =       904.75235392     -906.87348754
  entropy T*S    EENTRO =         0.00000000
  eigenvalues    EBANDS =      -367.84434613
  atomic energy  EATOM  =      1785.93233605
  ---------------------------------------------------
  free energy    TOTEN  =       -17.29607015 eV

  energy without entropy =      -17.29607015  energy(sigma->0) =      -17.29607015


--------------------------------------------------------------------------------------------------------




 average (electrostatic) potential at core
  the test charge radii are     0.6991  0.9406
  (the norm of the test charge is              1.0000)
       1 -62.6701       2-100.1457       3-100.1457       4-100.1457       5-100.1457
 
 
 
 E-fermi :  -4.9902     XC(G=0):  -2.9950     alpha+bet : -1.6667


 k-point   1 :       0.0000    0.0000    0.0000
  band No.  band energies     occupation 
      1     -23.0940      2.00000
      2     -19.8640      2.00000
      3     -19.8640      2.00000
      4     -19.8640      2.00000
      5     -14.1850      2.00000
      6     -10.9937      2.00000
      7     -10.9937      2.00000
      8     -10.9937      2.00000
      9      -7.5868      2.00000
     10      -7.5868      2.00000
     11      -6.9504      2.00000
     12      -6.9504      2.00000
     13      -6.9504      2.00000
     14      -6.0150      2.00000
     15      -6.0150      2.00000
     16      -6.0150      2.00000
     17      -1.1305      0.00000
     18       0.2576      0.00000
     19       0.2576      0.00000
     20       0.4450      0.00000


--------------------------------------------------------------------------------------------------------


 soft charge-density along one line, spin component           1
         0         1         2         3         4         5         6         7         8         9
 total charge-density along one line
 
 pseudopotential strength for first ion, spin component:           1
 10.457   0.027   0.000   0.000   0.000   0.000   0.000   0.000
  0.027  -0.001   0.000   0.000   0.000   0.000   0.000   0.000
  0.000   0.000  -4.602   0.000   0.000  -0.003   0.000   0.000
  0.000   0.000   0.000  -4.602   0.000   0.000  -0.003   0.000
  0.000   0.000   0.000   0.000  -4.602   0.000   0.000  -0.003
  0.000   0.000  -0.003   0.000   0.000  -0.778   0.000   0.000
  0.000   0.000   0.000  -0.003   0.000   0.000  -0.778   0.000
  0.000   0.000   0.000   0.000  -0.003   0.000   0.000  -0.778
 total augmentation occupancy for first ion, spin component:           1
  1.434  -0.625   0.000   0.000   0.000   0.000   0.000   0.000
 -0.625   0.596   0.000   0.000   0.000   0.000   0.000   0.000
  0.000   0.000   0.913   0.000   0.000   0.153   0.000   0.000
  0.000   0.000   0.000   0.913   0.000   0.000   0.153   0.000
  0.000   0.000   0.000   0.000   0.913   0.000   0.000   0.153
  0.000   0.000   0.153   0.000   0.000   0.030   0.000   0.000
  0.000   0.000   0.000   0.153   0.000   0.000   0.030   0.000
  0.000   0.000   0.000   0.000   0.153   0.000   0.000   0.030


------------------------ aborting loop because EDIFF is reached ----------------------------------------


    CHARGE:  cpu time    0.18: real time    0.18
    FORLOC:  cpu time    0.09: real time    0.09
    FORNL :  cpu time    0.16: real time    0.16
    STRESS:  cpu time    0.37: real time    0.37
    FORCOR:  cpu time    1.04: real time    1.04
    FORHAR:  cpu time    0.32: real time    0.32
    MIXING:  cpu time    0.04: real time    0.04

  FORCE on cell =-STRESS in cart. coord.  units (eV):
  Direction    XX          YY          ZZ          XY          YZ          ZX
  --------------------------------------------------------------------------------------
  Alpha Z     8.81598     8.81598     8.81598
  Ewald     -27.08092   -27.08092   -27.08092     0.00000     0.00000     0.00000
  Hartree   485.19001   485.19001   485.19001     0.00000     0.00000     0.00000
  E(xc)    -118.16686  -118.16686  -118.16686     0.00000     0.00000     0.00000
  Local   -1122.08929 -1122.08929 -1122.08929     0.00000     0.00000     0.00000
  n-local   328.98916   328.98925   328.98912     0.00006    -0.00006     0.00014
  augment   -79.33558   -79.33558   -79.33558     0.00000     0.00001     0.00001
  Kinetic   523.68277   523.68246   523.68338     0.00000     0.00000    -0.00002
  Fock        0.00000     0.00000     0.00000     0.00000     0.00000     0.00000
  -------------------------------------------------------------------------------------
  Total       0.00539     0.00539     0.00539     0.00000     0.00000     0.00000
  in kB       0.01686     0.01686     0.01686     0.00000     0.00000     0.00000
  external pressure =        0.02 kB  Pullay stress =        0.00 kB


 VOLUME and BASIS-vectors are now :
 -----------------------------------------------------------------------------
  energy-cutoff  :      350.00
  volume of cell :      512.00
      direct lattice vectors                 reciprocal lattice vectors
     8.000000000  0.000000000  0.000000000     0.125000000  0.000000000  0.000000000
     0.000000000  8.000000000  0.000000000     0.000000000  0.125000000  0.000000000
     0.000000000  0.000000000  8.000000000     0.000000000  0.000000000  0.125000000

  length of vectors
     8.000000000  8.000000000  8.000000000     0.125000000  0.125000000  0.125000000


 FORCES acting on ions
    electron-ion (+dipol)            ewald-force                    non-local-force                 convergence-correction
 -----------------------------------------------------------------------------------------------
   -.233E-13 0.879E-14 -.830E-14   -.289E-14 0.333E-14 0.333E-14   0.794E-22 -.106E-21 -.106E-21   0.411E-13 0.552E-13 -.731E-14
   -.167E+03 -.167E+03 -.167E+03   0.170E+03 0.170E+03 0.170E+03   -.324E+01 -.324E+01 -.324E+01   -.153E-03 -.153E-03 -.153E-03
   0.167E+03 0.167E+03 -.167E+03   -.170E+03 -.170E+03 0.170E+03   0.324E+01 0.324E+01 -.324E+01   0.153E-03 0.153E-03 -.153E-03
   0.167E+03 -.167E+03 0.167E+03   -.170E+03 0.170E+03 -.170E+03   0.324E+01 -.324E+01 0.324E+01   0.153E-03 -.153E-03 0.153E-03
   -.167E+03 0.167E+03 0.167E+03   0.170E+03 -.170E+03 -.170E+03   -.324E+01 0.324E+01 0.324E+01   -.153E-03 0.153E-03 0.153E-03
 -----------------------------------------------------------------------------------------------
   0.231E-06 0.231E-06 0.154E-07   0.000E+00 0.000E+00 0.284E-13   0.000E+00 -.444E-15 -.222E-14   0.220E-12 0.258E-12 -.707E-13
 
 
 POSITION                                       TOTAL-FORCE (eV/Angst)
 -----------------------------------------------------------------------------------
      0.00000      0.00000      0.00000         0.000000      0.000000      0.000000
      1.02134      1.02134      1.02134         0.110761      0.110761      0.110761
      6.97866      6.97866      1.02134        -0.110761     -0.110761      0.110761
      6.97866      1.02134      6.97866        -0.110761      0.110761     -0.110761
      1.02134      6.97866      6.97866         0.110761     -0.110761     -0.110761
 -----------------------------------------------------------------------------------
    total drift:                                0.000000      0.000000      0.000000


--------------------------------------------------------------------------------------------------------



  FREE ENERGIE OF THE ION-ELECTRON SYSTEM (eV)
  ---------------------------------------------------
  free  energy   TOTEN  =       -17.296070 eV

  energy  without entropy=      -17.296070  energy(sigma->0) =      -17.296070
 


--------------------------------------------------------------------------------------------------------


    POTLOK:  cpu time    1.01: real time    1.02


--------------------------------------------------------------------------------------------------------




--------------------------------------------------------------------------------------------------------


    WAVPRE:  cpu time    0.24: real time    0.24
    FEWALD:  cpu time    0.00: real time    0.00
    ORTHCH:  cpu time    0.03: real time    0.03
     LOOP+:  cpu time   26.98: real time   27.79


----------------------------------------- Iteration    2(   1)  ---------------------------------------


    POTLOK:  cpu time    0.91: real time    0.91
    SETDIJ:  cpu time    0.01: real time    0.02
     EDDAV:  cpu time    0.77: real time    0.77
       DOS:  cpu time    0.00: real time    0.00
    CHARGE:  cpu time    0.16: real time    0.16
    MIXING:  cpu time    0.03: real time    0.03
    --------------------------------------------
      LOOP:  cpu time    1.88: real time    1.88

 eigenvalue-minimisations  :    40
 total energy-change (2. order) :-0.5778817E-03  (-0.6257849E-01)
 number of electron      32.0000008 magnetization 
 augmentation part       -3.7683920 magnetization 

 Broyden mixing:
  rms(total) = 0.13585E-01    rms(broyden)= 0.13564E-01
  rms(prec ) = 0.19009E-01
  weight for this iteration     100.00

 Free energy of the ion-electron system (eV)
  ---------------------------------------------------
  alpha Z        PSCENC =         8.81598031
  Ewald energy   TEWEN  =       -92.07193447
  -1/2 Hartree   DENC   =     -1445.70064244
  -exchange  EXHF       =         0.00000000
  -V(xc)+E(xc)   XCENC  =        94.60870129
  PAW double counting   =       904.75994591     -906.88115090
  entropy T*S    EENTRO =         0.00000000
  eigenvalues    EBANDS =      -366.75983437
  atomic energy  EATOM  =      1785.93233605
  ---------------------------------------------------
  free energy    TOTEN  =       -17.29659862 eV

  energy without entropy =      -17.29659862  energy(sigma->0) =      -17.29659862


--------------------------------------------------------------------------------------------------------




----------------------------------------- Iteration    2(   2)  ---------------------------------------


    POTLOK:  cpu time    0.90: real time    0.90
    SETDIJ:  cpu time    0.02: real time    0.02
     EDDAV:  cpu time    0.86: real time    0.86
       DOS:  cpu time    0.00: real time    0.00
    CHARGE:  cpu time    0.15: real time    0.15
    MIXING:  cpu time    0.03: real time    0.03
    --------------------------------------------
      LOOP:  cpu time    1.96: real time    1.96

 eigenvalue-minimisations  :    48
 total energy-change (2. order) :-0.2218399E-02  (-0.2568912E-02)
 number of electron      32.0000008 magnetization 
 augmentation part       -3.7706836 magnetization 

 Broyden mixing:
  rms(total) = 0.10867E-01    rms(broyden)= 0.10862E-01
  rms(prec ) = 0.14425E-01
  weight for this iteration     100.00

 eigenvalues of (default mixing * dielectric matrix)
  average eigenvalue GAMMA=   0.7020
  0.7020

 Free energy of the ion-electron system (eV)
  ---------------------------------------------------
  alpha Z        PSCENC =         8.81598031
  Ewald energy   TEWEN  =       -92.07193447
  -1/2 Hartree   DENC   =     -1445.41541656
  -exchange  EXHF       =         0.00000000
  -V(xc)+E(xc)   XCENC  =        94.60301280
  PAW double counting   =       903.61493088     -905.72852845
  entropy T*S    EENTRO =         0.00000000
  eigenvalues    EBANDS =      -367.04919756
  atomic energy  EATOM  =      1785.93233605
  ---------------------------------------------------
  free energy    TOTEN  =       -17.29881702 eV

  energy without entropy =      -17.29881702  energy(sigma->0) =      -17.29881702


--------------------------------------------------------------------------------------------------------




----------------------------------------- Iteration    2(   3)  ---------------------------------------


    POTLOK:  cpu time    0.86: real time    0.86
    SETDIJ:  cpu time    0.01: real time    0.02
     EDDAV:  cpu time    0.86: real time    0.86
       DOS:  cpu time    0.00: real time    0.00
    CHARGE:  cpu time    0.15: real time    0.15
    MIXING:  cpu time    0.03: real time    0.03
    --------------------------------------------
      LOOP:  cpu time    1.91: real time    1.93

 eigenvalue-minimisations  :    48
 total energy-change (2. order) : 0.1029796E-03  (-0.5547722E-04)
 number of electron      32.0000008 magnetization 
 augmentation part       -3.7703230 magnetization 

 Broyden mixing:
  rms(total) = 0.68726E-02    rms(broyden)= 0.68723E-02
  rms(prec ) = 0.87412E-02
  weight for this iteration     100.00

 eigenvalues of (default mixing * dielectric matrix)
  average eigenvalue GAMMA=   1.2586
  1.2586  1.2586

 Free energy of the ion-electron system (eV)
  ---------------------------------------------------
  alpha Z        PSCENC =         8.81598031
  Ewald energy   TEWEN  =       -92.07193447
  -1/2 Hartree   DENC   =     -1445.31549377
  -exchange  EXHF       =         0.00000000
  -V(xc)+E(xc)   XCENC  =        94.60112912
  PAW double counting   =       903.11115122     -905.21904697
  entropy T*S    EENTRO =         0.00000000
  eigenvalues    EBANDS =      -367.15283553
  atomic energy  EATOM  =      1785.93233605
  ---------------------------------------------------
  free energy    TOTEN  =       -17.29871404 eV

  energy without entropy =      -17.29871404  energy(sigma->0) =      -17.29871404


--------------------------------------------------------------------------------------------------------




----------------------------------------- Iteration    2(   4)  ---------------------------------------


    POTLOK:  cpu time    1.00: real time    1.00
    SETDIJ:  cpu time    0.01: real time    0.02
     EDDAV:  cpu time    0.71: real time    0.71
       DOS:  cpu time    0.00: real time    0.00
    --------------------------------------------
      LOOP:  cpu time    1.73: real time    1.74

 eigenvalue-minimisations  :    32
 total energy-change (2. order) : 0.3352341E-04  (-0.2047432E-04)
 number of electron      32.0000008 magnetization 
 augmentation part       -3.7703230 magnetization 

 Free energy of the ion-electron system (eV)
  ---------------------------------------------------
  alpha Z        PSCENC =         8.81598031
  Ewald energy   TEWEN  =       -92.07193447
  -1/2 Hartree   DENC   =     -1445.25737044
  -exchange  EXHF       =         0.00000000
  -V(xc)+E(xc)   XCENC  =        94.59902709
  PAW double counting   =       902.55123025     -904.65304082
  entropy T*S    EENTRO =         0.00000000
  eigenvalues    EBANDS =      -367.21490848
  atomic energy  EATOM  =      1785.93233605
  ---------------------------------------------------
  free energy    TOTEN  =       -17.29868052 eV

  energy without entropy =      -17.29868052  energy(sigma->0) =      -17.29868052


--------------------------------------------------------------------------------------------------------




 average (electrostatic) potential at core
  the test charge radii are     0.6991  0.9406
  (the norm of the test charge is              1.0000)
       1 -62.6839       2-100.1503       3-100.1503       4-100.1503       5-100.1503
 
 
 
 E-fermi :  -5.0505     XC(G=0):  -2.9899     alpha+bet : -1.6667


 k-point   1 :       0.0000    0.0000    0.0000
  band No.  band energies     occupation 
      1     -22.9864      2.00000
      2     -19.8356      2.00000
      3     -19.8356      2.00000
      4     -19.8356      2.00000
      5     -14.1953      2.00000
      6     -10.9476      2.00000
      7     -10.9476      2.00000
      8     -10.9476      2.00000
      9      -7.5658      2.00000
     10      -7.5658      2.00000
     11      -6.9483      2.00000
     12      -6.9483      2.00000
     13      -6.9483      2.00000
     14      -6.0331      2.00000
     15      -6.0331      2.00000
     16      -6.0331      2.00000
     17      -1.2337      0.00000
     18       0.1915      0.00000
     19       0.1915      0.00000
     20       0.4479      0.00000


--------------------------------------------------------------------------------------------------------


 soft charge-density along one line, spin component           1
         0         1         2         3         4         5         6         7         8         9
 total charge-density along one line
 
 pseudopotential strength for first ion, spin component:           1
 10.457   0.027   0.000   0.000   0.000   0.000   0.000   0.000
  0.027  -0.001   0.000   0.000   0.000   0.000   0.000   0.000
  0.000   0.000  -4.603   0.000   0.000  -0.003   0.000   0.000
  0.000   0.000   0.000  -4.603   0.000   0.000  -0.003   0.000
  0.000   0.000   0.000   0.000  -4.603   0.000   0.000  -0.003
  0.000   0.000  -0.003   0.000   0.000  -0.778   0.000   0.000
  0.000   0.000   0.000  -0.003   0.000   0.000  -0.778   0.000
  0.000   0.000   0.000   0.000  -0.003   0.000   0.000  -0.778
 total augmentation occupancy for first ion, spin component:           1
  1.436  -0.605   0.000   0.000   0.000   0.000   0.000   0.000
 -0.605   0.570   0.000   0.000   0.000   0.000   0.000   0.000
  0.000   0.000   0.905   0.000   0.000   0.151   0.000   0.000
  0.000   0.000   0.000   0.905   0.000   0.000   0.151   0.000
  0.000   0.000   0.000   0.000   0.905   0.000   0.000   0.151
  0.000   0.000   0.151   0.000   0.000   0.029   0.000   0.000
  0.000   0.000   0.000   0.151   0.000   0.000   0.029   0.000
  0.000   0.000   0.000   0.000   0.151   0.000   0.000   0.029


------------------------ aborting loop because EDIFF is reached ----------------------------------------


    CHARGE:  cpu time    0.18: real time    0.18
    FORLOC:  cpu time    0.09: real time    0.09
    FORNL :  cpu time    0.17: real time    0.18
    STRESS:  cpu time    0.36: real time    0.36
    FORCOR:  cpu time    0.98: real time    0.98
    FORHAR:  cpu time    0.33: real time    0.33
    MIXING:  cpu time    0.03: real time    0.03

  FORCE on cell =-STRESS in cart. coord.  units (eV):
  Direction    XX          YY          ZZ          XY          YZ          ZX
  --------------------------------------------------------------------------------------
  Alpha Z     8.81598     8.81598     8.81598
  Ewald     -30.69096   -30.69096   -30.69096     0.00000     0.00000     0.00000
  Hartree   481.72540   481.72540   481.72540     0.00000     0.00000     0.00000
  E(xc)    -118.04466  -118.04466  -118.04466     0.00000     0.00000     0.00000
  Local   -1114.80553 -1114.80553 -1114.80553     0.00000     0.00000     0.00000
  n-local   328.90350   328.90418   328.90251    -0.00006     0.00008    -0.00009
  augment   -79.35170   -79.35169   -79.35170     0.00000     0.00000     0.00001
  Kinetic   522.86466   522.86340   522.86652     0.00009    -0.00012     0.00015
  Fock        0.00000     0.00000     0.00000     0.00000     0.00000     0.00000
  -------------------------------------------------------------------------------------
  Total      -0.58321    -0.58321    -0.58321     0.00000     0.00000     0.00000
  in kB      -1.82502    -1.82502    -1.82502     0.00000     0.00000     0.00000
  external pressure =       -1.83 kB  Pullay stress =        0.00 kB


 VOLUME and BASIS-vectors are now :
 -----------------------------------------------------------------------------
  energy-cutoff  :      350.00
  volume of cell :      512.00
      direct lattice vectors                 reciprocal lattice vectors
     8.000000000  0.000000000  0.000000000     0.125000000  0.000000000  0.000000000
     0.000000000  8.000000000  0.000000000     0.000000000  0.125000000  0.000000000
     0.000000000  0.000000000  8.000000000     0.000000000  0.000000000  0.125000000

  length of vectors
     8.000000000  8.000000000  8.000000000     0.125000000  0.125000000  0.125000000


 FORCES acting on ions
    electron-ion (+dipol)            ewald-force                    non-local-force                 convergence-correction
 -----------------------------------------------------------------------------------------------
   -.149E-13 -.258E-14 -.516E-14   0.260E-13 0.172E-13 0.312E-13   0.000E+00 0.000E+00 -.159E-21   -.273E-12 0.628E-13 -.843E-14
   -.164E+03 -.164E+03 -.164E+03   0.168E+03 0.168E+03 0.168E+03   -.337E+01 -.337E+01 -.337E+01   -.205E-01 -.205E-01 -.205E-01
   0.164E+03 0.164E+03 -.164E+03   -.168E+03 -.168E+03 0.168E+03   0.337E+01 0.337E+01 -.337E+01   0.205E-01 0.205E-01 -.205E-01
   0.164E+03 -.164E+03 0.164E+03   -.168E+03 0.168E+03 -.168E+03   0.337E+01 -.337E+01 0.337E+01   0.205E-01 -.205E-01 0.205E-01
   -.164E+03 0.164E+03 0.164E+03   0.168E+03 -.168E+03 -.168E+03   -.337E+01 0.337E+01 0.337E+01   -.205E-01 0.205E-01 0.205E-01
 -----------------------------------------------------------------------------------------------
   0.272E-06 0.272E-06 0.174E-07   -.284E-13 0.284E-13 0.284E-13   -.444E-15 0.888E-15 0.444E-15   -.774E-12 0.554E-12 0.327E-13
 
 
 POSITION                                       TOTAL-FORCE (eV/Angst)
 -----------------------------------------------------------------------------------
      0.00000      0.00000      0.00000         0.000000      0.000000      0.000000
      1.02668      1.02668      1.02668        -0.020509     -0.020509     -0.020509
      6.97332      6.97332      1.02668         0.020509      0.020509     -0.020509
      6.97332      1.02668      6.97332         0.020509     -0.020509      0.020509
      1.02668      6.97332      6.97332        -0.020509      0.020509      0.020509
 -----------------------------------------------------------------------------------
    total drift:                                0.000000      0.000000      0.000000


--------------------------------------------------------------------------------------------------------



  FREE ENERGIE OF THE ION-ELECTRON SYSTEM (eV)
  ---------------------------------------------------
  free  energy   TOTEN  =       -17.298681 eV

  energy  without entropy=      -17.298681  energy(sigma->0) =      -17.298681
 
 d Force = 0.2893542E-02[-0.132E-02, 0.710E-02]  d Energy = 0.2610370E-02 0.283E-03
 d Force = 0.1083029E+02[ 0.108E+02, 0.109E+02]  d Ewald  = 0.1083012E+02 0.171E-03


--------------------------------------------------------------------------------------------------------


    POTLOK:  cpu time    1.02: real time    1.02


--------------------------------------------------------------------------------------------------------


 Steepest descent step on ions:
 trial-energy change:   -0.002610  1 .order   -0.002894   -0.007102    0.001315
  (g-gl).g = 0.710E-02      g.g   = 0.710E-02  gl.gl    = 0.000E+00
 g(Force)  = 0.710E-02   g(Stress)= 0.000E+00 ortho     = 0.000E+00
 gamma     =   0.00000
 trial     =   1.00000
 opt step  =   0.84377  (harmonic =   0.84377) maximal distance =0.00450860
 next E    =   -17.299066   (d E  =  -0.00300)


--------------------------------------------------------------------------------------------------------


    WAVPRE:  cpu time    0.25: real time    0.25
    FEWALD:  cpu time    0.00: real time    0.00
    ORTHCH:  cpu time    0.03: real time    0.03
     LOOP+:  cpu time   10.94: real time   11.30


----------------------------------------- Iteration    3(   1)  ---------------------------------------


    POTLOK:  cpu time    1.00: real time    1.00
    SETDIJ:  cpu time    0.01: real time    0.02
     EDDAV:  cpu time    0.92: real time    0.92
       DOS:  cpu time    0.00: real time    0.00
    CHARGE:  cpu time    0.17: real time    0.17
    MIXING:  cpu time    0.03: real time    0.03
    --------------------------------------------
      LOOP:  cpu time    2.13: real time    2.14

 eigenvalue-minimisations  :    48
 total energy-change (2. order) :-0.9811662E-04  (-0.1706801E-02)
 number of electron      32.0000005 magnetization 
 augmentation part       -3.7706526 magnetization 

 Broyden mixing:
  rms(total) = 0.19180E-02    rms(broyden)= 0.19144E-02
  rms(prec ) = 0.33436E-02
  weight for this iteration     100.00

 Free energy of the ion-electron system (eV)
  ---------------------------------------------------
  alpha Z        PSCENC =         8.81598031
  Ewald energy   TEWEN  =       -90.38880438
  -1/2 Hartree   DENC   =     -1446.75452945
  -exchange  EXHF       =         0.00000000
  -V(xc)+E(xc)   XCENC  =        94.61653166
  PAW double counting   =       902.15894861     -904.25668773
  entropy T*S    EENTRO =         0.00000000
  eigenvalues    EBANDS =      -367.42258723
  atomic energy  EATOM  =      1785.93233605
  ---------------------------------------------------
  free energy    TOTEN  =       -17.29881216 eV

  energy without entropy =      -17.29881216  energy(sigma->0) =      -17.29881216


--------------------------------------------------------------------------------------------------------




----------------------------------------- Iteration    3(   2)  ---------------------------------------


    POTLOK:  cpu time    0.88: real time    0.88
    SETDIJ:  cpu time    0.01: real time    0.02
     EDDAV:  cpu time    0.94: real time    0.94
       DOS:  cpu time    0.00: real time    0.00
    --------------------------------------------
      LOOP:  cpu time    1.84: real time    1.85

 eigenvalue-minimisations  :    48
 total energy-change (2. order) :-0.5630249E-04  (-0.7135052E-04)
 number of electron      32.0000005 magnetization 
 augmentation part       -3.7706526 magnetization 

 Free energy of the ion-electron system (eV)
  ---------------------------------------------------
  alpha Z        PSCENC =         8.81598031
  Ewald energy   TEWEN  =       -90.38880438
  -1/2 Hartree   DENC   =     -1446.82476086
  -exchange  EXHF       =         0.00000000
  -V(xc)+E(xc)   XCENC  =        94.61769500
  PAW double counting   =       902.31003281     -904.40875215
  entropy T*S    EENTRO =         0.00000000
  eigenvalues    EBANDS =      -367.35259524
  atomic energy  EATOM  =      1785.93233605
  ---------------------------------------------------
  free energy    TOTEN  =       -17.29886846 eV

  energy without entropy =      -17.29886846  energy(sigma->0) =      -17.29886846


--------------------------------------------------------------------------------------------------------




 average (electrostatic) potential at core
  the test charge radii are     0.6991  0.9406
  (the norm of the test charge is              1.0000)
       1 -62.6946       2-100.1508       3-100.1508       4-100.1508       5-100.1508
 
 
 
 E-fermi :  -5.0641     XC(G=0):  -2.9952     alpha+bet : -1.6667


 k-point   1 :       0.0000    0.0000    0.0000
  band No.  band energies     occupation 
      1     -23.0063      2.00000
      2     -19.8417      2.00000
      3     -19.8417      2.00000
      4     -19.8417      2.00000
      5     -14.1944      2.00000
      6     -10.9564      2.00000
      7     -10.9564      2.00000
      8     -10.9564      2.00000
      9      -7.5699      2.00000
     10      -7.5699      2.00000
     11      -6.9496      2.00000
     12      -6.9496      2.00000
     13      -6.9496      2.00000
     14      -6.0309      2.00000
     15      -6.0309      2.00000
     16      -6.0309      2.00000
     17      -1.2193      0.00000
     18       0.1993      0.00000
     19       0.1993      0.00000
     20       0.4366      0.00000


--------------------------------------------------------------------------------------------------------


 soft charge-density along one line, spin component           1
         0         1         2         3         4         5         6         7         8         9
 total charge-density along one line
 
 pseudopotential strength for first ion, spin component:           1
 10.457   0.027   0.000   0.000   0.000   0.000   0.000   0.000
  0.027  -0.001   0.000   0.000   0.000   0.000   0.000   0.000
  0.000   0.000  -4.604   0.000   0.000  -0.003   0.000   0.000
  0.000   0.000   0.000  -4.604   0.000   0.000  -0.003   0.000
  0.000   0.000   0.000   0.000  -4.604   0.000   0.000  -0.003
  0.000   0.000  -0.003   0.000   0.000  -0.778   0.000   0.000
  0.000   0.000   0.000  -0.003   0.000   0.000  -0.778   0.000
  0.000   0.000   0.000   0.000  -0.003   0.000   0.000  -0.778
 total augmentation occupancy for first ion, spin component:           1
  1.436  -0.609   0.000   0.000   0.000   0.000   0.000   0.000
 -0.609   0.575   0.000   0.000   0.000   0.000   0.000   0.000
  0.000   0.000   0.907   0.000   0.000   0.151   0.000   0.000
  0.000   0.000   0.000   0.907   0.000   0.000   0.151   0.000
  0.000   0.000   0.000   0.000   0.907   0.000   0.000   0.151
  0.000   0.000   0.151   0.000   0.000   0.030   0.000   0.000
  0.000   0.000   0.000   0.151   0.000   0.000   0.030   0.000
  0.000   0.000   0.000   0.000   0.151   0.000   0.000   0.030


------------------------ aborting loop because EDIFF is reached ----------------------------------------


    CHARGE:  cpu time    0.17: real time    0.17
    FORLOC:  cpu time    0.09: real time    0.09
    FORNL :  cpu time    0.16: real time    0.16
    STRESS:  cpu time    0.36: real time    0.36
    FORCOR:  cpu time    0.92: real time    0.92
    FORHAR:  cpu time    0.29: real time    0.29
    MIXING:  cpu time    0.03: real time    0.03

  FORCE on cell =-STRESS in cart. coord.  units (eV):
  Direction    XX          YY          ZZ          XY          YZ          ZX
  --------------------------------------------------------------------------------------
  Alpha Z     8.81598     8.81598     8.81598
  Ewald     -30.12992   -30.12992   -30.12992     0.00000     0.00000     0.00000
  Hartree   482.32548   482.32548   482.32548     0.00000     0.00000     0.00000
  E(xc)    -118.06062  -118.06062  -118.06062     0.00000     0.00000     0.00000
  Local   -1115.99862 -1115.99862 -1115.99862     0.00000     0.00000     0.00000
  n-local   328.91497   328.91578   328.91381    -0.00007     0.00006    -0.00017
  augment   -79.34697   -79.34697   -79.34697     0.00002     0.00001     0.00002
  Kinetic   523.02452   523.02441   523.02467     0.00008    -0.00007     0.00019
  Fock        0.00000     0.00000     0.00000     0.00000     0.00000     0.00000
  -------------------------------------------------------------------------------------
  Total      -0.45528    -0.45528    -0.45528     0.00000     0.00000     0.00000
  in kB      -1.42470    -1.42470    -1.42470     0.00000     0.00000     0.00000
  external pressure =       -1.42 kB  Pullay stress =        0.00 kB


 VOLUME and BASIS-vectors are now :
 -----------------------------------------------------------------------------
  energy-cutoff  :      350.00
  volume of cell :      512.00
      direct lattice vectors                 reciprocal lattice vectors
     8.000000000  0.000000000  0.000000000     0.125000000  0.000000000  0.000000000
     0.000000000  8.000000000  0.000000000     0.000000000  0.125000000  0.000000000
     0.000000000  0.000000000  8.000000000     0.000000000  0.000000000  0.125000000

  length of vectors
     8.000000000  8.000000000  8.000000000     0.125000000  0.125000000  0.125000000


 FORCES acting on ions
    electron-ion (+dipol)            ewald-force                    non-local-force                 convergence-correction
 -----------------------------------------------------------------------------------------------
   0.680E-14 0.177E-14 -.246E-13   0.273E-13 -.130E-13 -.415E-13   -.424E-21 0.000E+00 0.424E-21   0.118E-11 -.402E-12 -.121E-11
   -.165E+03 -.165E+03 -.165E+03   0.168E+03 0.168E+03 0.168E+03   -.332E+01 -.332E+01 -.332E+01   0.301E-01 0.301E-01 0.301E-01
   0.165E+03 0.165E+03 -.165E+03   -.168E+03 -.168E+03 0.168E+03   0.332E+01 0.332E+01 -.332E+01   -.301E-01 -.301E-01 0.301E-01
   0.165E+03 -.165E+03 0.165E+03   -.168E+03 0.168E+03 -.168E+03   0.332E+01 -.332E+01 0.332E+01   -.301E-01 0.301E-01 -.301E-01
   -.165E+03 0.165E+03 0.165E+03   0.168E+03 -.168E+03 -.168E+03   -.332E+01 0.332E+01 0.332E+01   0.301E-01 -.301E-01 -.301E-01
 -----------------------------------------------------------------------------------------------
   0.270E-06 0.270E-06 0.174E-07   0.000E+00 0.000E+00 0.000E+00   -.444E-15 0.000E+00 0.888E-15   0.434E-11 -.133E-11 -.908E-11
 
 
 POSITION                                       TOTAL-FORCE (eV/Angst)
 -----------------------------------------------------------------------------------
      0.00000      0.00000      0.00000         0.000000      0.000000      0.000000
      1.02585      1.02585      1.02585        -0.006006     -0.006006     -0.006006
      6.97415      6.97415      1.02585         0.006006      0.006006     -0.006006
      6.97415      1.02585      6.97415         0.006006     -0.006006      0.006006
      1.02585      6.97415      6.97415        -0.006006      0.006006      0.006006
 -----------------------------------------------------------------------------------
    total drift:                                0.000000      0.000000      0.000000


--------------------------------------------------------------------------------------------------------



  FREE ENERGIE OF THE ION-ELECTRON SYSTEM (eV)
  ---------------------------------------------------
  free  energy   TOTEN  =       -17.298868 eV

  energy  without entropy=      -17.298868  energy(sigma->0) =      -17.298868
 
 d Force = 0.1328065E-03[ 0.602E-04, 0.205E-03]  d Energy = 0.1879425E-03-0.551E-04
 d Force =-0.1683131E+01[-0.168E+01,-0.168E+01]  d Ewald  =-0.1683130E+01-0.647E-06


--------------------------------------------------------------------------------------------------------


    POTLOK:  cpu time    0.91: real time    0.91


--------------------------------------------------------------------------------------------------------




--------------------------------------------------------------------------------------------------------


  
 reached required accuracy - stopping structural energy minimisation
 writing wavefunctions
     LOOP+:  cpu time    6.93: real time    7.05
    4ORBIT:  cpu time    0.00: real time    0.00

 total amount of memory used by VASP on root node    83631. kBytes
========================================================================

   base      :      30000. kBytes
   nonl-proj :       1564. kBytes
   fftplans  :      17864. kBytes
   grid      :      31769. kBytes
   one-center:         15. kBytes
   wavefun   :       2419. kBytes
 
  
  
 General timing and accounting informations for this job:
 ========================================================
  
                  Total CPU time used (sec):       46.713
                            User time (sec):       46.137
                          System time (sec):        0.576
                         Elapsed time (sec):       48.366
  
                   Maximum memory used (kb):           0.
                   Average memory used (kb):           0.
  
                          Minor page faults:       153226
                          Major page faults:            0
                 Voluntary context switches:         4312
