<?xml version="1.0" encoding="ISO-8859-1"?>
<modeling>
 <generator>
  <i name="program" type="string">vasp </i>
  <i name="version" type="string">5.2.12  </i>
  <i name="subversion" type="string">11Nov11 complex                                                      parallel </i>
  <i name="platform" type="string">LinuxIFC </i>
  <i name="date" type="string">2012 10 31 </i>
  <i name="time" type="string">21:35:03 </i>
 </generator>
 <incar>
  <i type="string" name="PREC">normal</i>
  <i type="int" name="IBRION">     2</i>
  <i type="int" name="NSW">    10</i>
  <i name="ENCUT">    350.00000000</i>
  <i type="int" name="ISMEAR">     0</i>
 </incar>
 <kpoints>
  <generation param="Monkhorst-Pack">
   <v type="int" name="divisions">       1        1        1 </v>
   <v name="usershift">      0.00000000       0.00000000       0.00000000 </v>
   <v name="genvec1">      1.00000000       0.00000000       0.00000000 </v>
   <v name="genvec2">      0.00000000       1.00000000       0.00000000 </v>
   <v name="genvec3">      0.00000000       0.00000000       1.00000000 </v>
   <v name="shift">      0.00000000       0.00000000       0.00000000 </v>
  </generation>
  <varray name="kpointlist" >
   <v>       0.00000000       0.00000000       0.00000000 </v>
  </varray>
  <varray name="weights" >
   <v>       1.00000000 </v>
  </varray>
 </kpoints>
 <parameters>
  <separator name="general" >
   <i type="string" name="SYSTEM">unknown system</i>
   <i type="logical" name="LCOMPAT"> F  </i>
  </separator>
  <separator name="electronic" >
   <i type="string" name="PREC">normal</i>
   <i name="ENMAX">    350.00000000</i>
   <i name="ENAUG">    644.87300000</i>
   <i name="EDIFF">      0.00010000</i>
   <i type="int" name="IALGO">    38</i>
   <i type="int" name="IWAVPR">    11</i>
   <i type="int" name="NBANDS">    20</i>
   <i name="NELECT">     32.00000000</i>
   <i type="int" name="TURBO">     0</i>
   <i type="int" name="IRESTART">     0</i>
   <i type="int" name="NREBOOT">     0</i>
   <i type="int" name="NMIN">     0</i>
   <i name="EREF">      0.00000000</i>
   <separator name="electronic smearing" >
    <i type="int" name="ISMEAR">     0</i>
    <i name="SIGMA">      0.20000000</i>
    <i name="KSPACING">      0.50000000</i>
    <i type="logical" name="KGAMMA"> T  </i>
   </separator>
   <separator name="electronic projectors" >
    <i type="logical" name="LREAL"> F  </i>
    <v name="ROPT">      0.00000000      0.00000000</v>
    <i type="int" name="LMAXPAW">  -100</i>
    <i type="int" name="LMAXMIX">     2</i>
    <i type="logical" name="NLSPLINE"> F  </i>
   </separator>
   <separator name="electronic startup" >
    <i type="int" name="ISTART">     0</i>
    <i type="int" name="ICHARG">     2</i>
    <i type="int" name="INIWAV">     1</i>
   </separator>
   <separator name="electronic spin" >
    <i type="int" name="ISPIN">     1</i>
    <i type="logical" name="LNONCOLLINEAR"> F  </i>
    <v name="MAGMOM">      1.00000000      1.00000000      1.00000000      1.00000000      1.00000000</v>
    <i name="NUPDOWN">     -1.00000000</i>
    <i type="logical" name="LSORBIT"> F  </i>
    <v name="SAXIS">      0.00000000      0.00000000      1.00000000</v>
    <i type="logical" name="LSPIRAL"> F  </i>
    <v name="QSPIRAL">      0.00000000      0.00000000      0.00000000</v>
    <i type="logical" name="LZEROZ"> F  </i>
   </separator>
   <separator name="electronic exchange-correlation" >
    <i type="logical" name="LASPH"> F  </i>
    <i type="logical" name="LMETAGGA"> F  </i>
   </separator>
   <separator name="electronic convergence" >
    <i type="int" name="NELM">    60</i>
    <i type="int" name="NELMDL">    -5</i>
    <i type="int" name="NELMIN">     2</i>
    <i name="ENINI">    350.00000000</i>
    <separator name="electronic convergence detail" >
     <i type="logical" name="LDIAG"> T  </i>
     <i type="logical" name="LSUBROT"> T  </i>
     <i name="WEIMIN">      0.00100000</i>
     <i name="EBREAK">      0.00000125</i>
     <i name="DEPER">      0.30000000</i>
     <i type="int" name="NRMM">     4</i>
     <i name="TIME">      0.40000000</i>
    </separator>
   </separator>
   <separator name="electronic mixer" >
    <i name="AMIX">      0.40000000</i>
    <i name="BMIX">      1.00000000</i>
    <i name="AMIN">      0.10000000</i>
    <i name="AMIX_MAG">      1.60000000</i>
    <i name="BMIX_MAG">      1.00000000</i>
    <separator name="electronic mixer details" >
     <i type="int" name="IMIX">     4</i>
     <i type="int" name="MAXMIX">   -45</i>
     <i name="WC">    100.00000000</i>
     <i type="int" name="INIMIX">     1</i>
     <i type="int" name="MIXPRE">     1</i>
     <i type="int" name="MREMOVE">     5</i>
    </separator>
   </separator>
   <separator name="electronic dipolcorrection" >
    <i type="logical" name="LDIPOL"> F  </i>
    <i type="logical" name="LMONO"> F  </i>
    <i type="int" name="IDIPOL">     0</i>
    <i name="EPSILON">      1.00000000</i>
    <v name="DIPOL">   -100.00000000   -100.00000000   -100.00000000</v>
    <i name="EFIELD">      0.00000000</i>
   </separator>
  </separator>
  <separator name="grids" >
   <i type="int" name="NGX">    40</i>
   <i type="int" name="NGY">    40</i>
   <i type="int" name="NGZ">    40</i>
   <i type="int" name="NGXF">    80</i>
   <i type="int" name="NGYF">    80</i>
   <i type="int" name="NGZF">    80</i>
   <i type="logical" name="ADDGRID"> F  </i>
  </separator>
  <separator name="ionic" >
   <i type="int" name="NSW">    10</i>
   <i type="int" name="IBRION">     2</i>
   <i type="int" name="ISIF">     2</i>
   <i name="PSTRESS">      0.00000000</i>
   <i name="EDIFFG">      0.00100000</i>
   <i type="int" name="NFREE">     1</i>
   <i name="POTIM">      0.50000000</i>
   <i name="SMASS">     -3.00000000</i>
   <i name="SCALEE">      1.00000000</i>
  </separator>
  <separator name="ionic md" >
   <i name="TEBEG">      0.00010000</i>
   <i name="TEEND">      0.00010000</i>
   <i type="int" name="NBLOCK">     1</i>
   <i type="int" name="KBLOCK">    10</i>
   <i type="int" name="NPACO">   256</i>
   <i name="APACO">     16.00000000</i>
  </separator>
  <separator name="symmetry" >
   <i type="int" name="ISYM">     2</i>
   <i name="SYMPREC">      0.00001000</i>
  </separator>
  <separator name="dos" >
   <i type="logical" name="LORBIT"> F  </i>
   <v name="RWIGS">     -1.00000000     -1.00000000</v>
   <i type="int" name="NEDOS">   301</i>
   <i name="EMIN">     10.00000000</i>
   <i name="EMAX">    -10.00000000</i>
   <i name="EFERMI">      0.00000000</i>
  </separator>
  <separator name="writing" >
   <i type="int" name="NWRITE">     2</i>
   <i type="logical" name="LWAVE"> T  </i>
   <i type="logical" name="LCHARG"> T  </i>
   <i type="logical" name="LPARD"> F  </i>
   <i type="logical" name="LVTOT"> F  </i>
   <i type="logical" name="LVHAR"> F  </i>
   <i type="logical" name="LELF"> F  </i>
   <i type="logical" name="LOPTICS"> F  </i>
   <v name="STM">      0.00000000      0.00000000      0.00000000      0.00000000      0.00000000      0.00000000      0.00000000</v>
  </separator>
  <separator name="performance" >
   <i type="int" name="NPAR">     1</i>
   <i type="int" name="NSIM">     4</i>
   <i type="int" name="NBLK">    -1</i>
   <i type="logical" name="LPLANE"> T  </i>
   <i type="logical" name="LSCALAPACK"> F  </i>
   <i type="logical" name="LSCAAWARE"> F  </i>
   <i type="logical" name="LSCALU"> F  </i>
   <i type="logical" name="LASYNC"> F  </i>
   <i type="logical" name="LORBITALREAL"> F  </i>
  </separator>
  <separator name="miscellaneous" >
   <i type="int" name="IDIOT">     3</i>
   <i type="logical" name="LMUSIC"> F  </i>
   <v name="POMASS">     12.01100000     35.45300000</v>
   <v name="DARWINR">      0.00000000      0.00000000</v>
   <v name="DARWINV">      1.00000000      1.00000000</v>
   <i type="logical" name="LCORR"> T  </i>
  </separator>
  <i type="logical" name="GGA_COMPAT"> T  </i>
  <i type="logical" name="LBERRY"> F  </i>
  <i type="int" name="ICORELEVEL">     0</i>
  <i type="logical" name="LDAU"> F  </i>
  <i type="int" name="I_CONSTRAINED_M">     0</i>
  <separator name="electronic exchange-correlation" >
   <i type="string" name="GGA">--</i>
   <i type="int" name="VOSKOWN">     0</i>
   <i type="logical" name="LHFCALC"> F  </i>
   <i type="string" name="PRECFOCK"></i>
   <i type="logical" name="LHFONE"> F  </i>
   <i type="logical" name="LRHFCALC"> F  </i>
   <i type="logical" name="LTHOMAS"> F  </i>
   <i type="logical" name="LMODELHF"> F  </i>
   <i name="ENCUT4O">     -1.00000000</i>
   <i type="int" name="EXXOEP">     0</i>
   <i type="int" name="FOURORBIT">     0</i>
   <i name="AEXX">      0.00000000</i>
   <i name="HFALPHA">      0.00000000</i>
   <i name="ALDAX">      1.00000000</i>
   <i name="AGGAX">      1.00000000</i>
   <i name="ALDAC">      1.00000000</i>
   <i name="AGGAC">      1.00000000</i>
   <i type="int" name="NKREDX">     1</i>
   <i type="int" name="NKREDY">     1</i>
   <i type="int" name="NKREDZ">     1</i>
   <i type="logical" name="SHIFTRED"> F  </i>
   <i type="logical" name="ODDONLY"> F  </i>
   <i type="logical" name="EVENONLY"> F  </i>
   <i type="int" name="LMAXFOCK">     0</i>
   <i type="int" name="NMAXFOCKAE">     0</i>
   <i type="logical" name="LFOCKAEDFT"> F  </i>
   <i name="HFSCREEN">      0.00000000</i>
   <i name="HFSCREENC">      0.00000000</i>
  </separator>
  <separator name="vdW DFT" >
   <i type="logical" name="LUSE_VDW"> F  </i>
   <i name="Zab_VDW">     -0.84910000</i>
   <i name="PARAM1">      0.12340000</i>
   <i name="PARAM2">      1.00000000</i>
   <i name="PARAM3">      0.00000000</i>
  </separator>
  <separator name="model GW" >
   <i type="int" name="MODEL_GW">     0</i>
   <i name="MODEL_EPS0">     61.44000000</i>
   <i name="MODEL_ALPHA">      1.00000000</i>
  </separator>
  <separator name="linear response parameters" >
   <i type="logical" name="LEPSILON"> F  </i>
   <i type="logical" name="LRPA"> F  </i>
   <i type="logical" name="LNABLA"> F  </i>
   <i type="logical" name="LVEL"> F  </i>
   <i type="int" name="KINTER">     0</i>
   <i name="CSHIFT">      0.10000000</i>
   <i name="OMEGAMAX">     -1.00000000</i>
  </separator>
  <separator name="orbital magnetization" >
   <i type="logical" name="NUCIND"> F  </i>
   <v name="MAGPOS">      0.00000000      0.00000000      0.00000000</v>
   <i type="logical" name="LNICSALL"> T  </i>
   <i type="logical" name="ORBITALMAG"> F  </i>
   <i type="logical" name="LMAGBLOCH"> F  </i>
   <i type="logical" name="LCHIMAG"> F  </i>
   <i type="logical" name="LGAUGE"> T  </i>
   <i type="int" name="MAGATOM">     0</i>
   <v name="MAGDIPOL">      0.00000000      0.00000000      0.00000000</v>
   <v name="AVECCONST">      0.00000000      0.00000000      0.00000000</v>
  </separator>
  <separator name="response functions" >
   <i type="logical" name="LADDER"> F  </i>
   <i type="logical" name="LHARTREE"> T  </i>
   <i type="int" name="IBSE">     0</i>
   <i type="logical" name="LTCTE"> F  </i>
   <i type="logical" name="LTETE"> F  </i>
   <i type="logical" name="LFXCEPS"> F  </i>
   <i type="logical" name="L2ORDER"> F  </i>
   <i type="logical" name="LUSEW"> F  </i>
   <i name="ENCUTGW">     -2.00000000</i>
   <i name="ENCUTGWSOFT">     -2.00000000</i>
   <i name="ENCUTLF">     -1.00000000</i>
   <i type="int" name="LMAXMP2">    -1</i>
   <i name="SCISSOR">      0.00000000</i>
   <i type="int" name="NOMEGA">     0</i>
   <i type="int" name="NOMEGAR">     0</i>
   <i type="int" name="NBANDSGW">    -1</i>
   <i type="int" name="NBANDSO">    -1</i>
   <i type="int" name="NBANDSV">    -1</i>
   <i name="OPTEMAX">      0.00000000</i>
   <i type="int" name="NELM">     1</i>
   <i type="int" name="DIM">     3</i>
   <i type="int" name="ANTIRES">     0</i>
   <i name="OMEGAMAX">    -30.00000000</i>
   <i name="OMEGATL">   -200.00000000</i>
   <i type="int" name="OMEGAGRID">     0</i>
   <i name="CSHIFT">     -0.10000000</i>
   <i type="logical" name="SELFENERGY"> F  </i>
   <i type="logical" name="LSPECTRAL"> F  </i>
   <i type="logical" name="ODDONLYGW"> F  </i>
   <i type="logical" name="EVENONLYGW"> F  </i>
   <i type="int" name="NKREDLFX">     1</i>
   <i type="int" name="NKREDLFY">     1</i>
   <i type="int" name="NKREDLFZ">     1</i>
   <i type="int" name="MAXMEM">  1800</i>
   <i type="int" name="TELESCOPE">     0</i>
  </separator>
 </parameters>
 <atominfo>
  <atoms>       5 </atoms>
  <types>       2 </types>
  <array name="atoms" >
   <dimension dim="1">ion</dimension>
   <field type="string">element</field>
   <field type="int">atomtype</field>
   <set>
    <rc><c>C </c><c>   1</c></rc>
    <rc><c>Cl</c><c>   2</c></rc>
    <rc><c>Cl</c><c>   2</c></rc>
    <rc><c>Cl</c><c>   2</c></rc>
    <rc><c>Cl</c><c>   2</c></rc>
   </set>
  </array>
  <array name="atomtypes" >
   <dimension dim="1">type</dimension>
   <field type="int">atomspertype</field>
   <field type="string">element</field>
   <field>mass</field>
   <field>valence</field>
   <field type="string">pseudopotential</field>
   <set>
    <rc><c>   1</c><c>C </c><c>     12.01100000</c><c>      4.00000000</c><c> PAW_PBE C 08Apr2002                    </c></rc>
    <rc><c>   4</c><c>Cl</c><c>     35.45300000</c><c>      7.00000000</c><c>  PAW_PBE Cl 17Jan2003                  </c></rc>
   </set>
  </array>
 </atominfo>
 <structure name="initialpos" >
  <crystal>
   <varray name="basis" >
    <v>       8.00000000       0.00000000       0.00000000 </v>
    <v>       0.00000000       8.00000000       0.00000000 </v>
    <v>       0.00000000       0.00000000       8.00000000 </v>
   </varray>
   <i name="volume">    512.00000000 </i>
   <varray name="rec_basis" >
    <v>       0.12500000       0.00000000       0.00000000 </v>
    <v>       0.00000000       0.12500000       0.00000000 </v>
    <v>       0.00000000       0.00000000       0.12500000 </v>
   </varray>
  </crystal>
  <varray name="positions" >
   <v>       0.00000000       0.00000000       0.00000000 </v>
   <v>       0.12766750       0.12766750       0.12766750 </v>
   <v>       0.87233250       0.87233250       0.12766750 </v>
   <v>       0.87233250       0.12766750       0.87233250 </v>
   <v>       0.12766750       0.87233250       0.87233250 </v>
  </varray>
 </structure>
 <calculation>
  <scstep>
   <time name="dav">    0.81    0.81</time>
   <time name="total">    1.82    1.85</time>
   <energy>
    <i name="alphaZ">      8.81598031 </i>
    <i name="ewald">    -81.24181609 </i>
    <i name="hartreedc">  -1444.11011375 </i>
    <i name="XCdc">     93.80984892 </i>
    <i name="pawpsdc">    831.83787413 </i>
    <i name="pawaedc">   -833.44360687 </i>
    <i name="eentropy">     -0.03938977 </i>
    <i name="bandstr">    -78.32580106 </i>
    <i name="atom">   1785.93233605 </i>
    <i name="e_fr_energy">    283.23531186 </i>
    <i name="e_wo_entrp">    283.27470163 </i>
    <i name="e_0_energy">    283.25500675 </i>
   </energy>
  </scstep>
  <scstep>
   <time name="dav">    1.17    1.18</time>
   <time name="total">    1.17    1.18</time>
   <energy>
    <i name="e_fr_energy">     34.91120751 </i>
    <i name="e_wo_entrp">     34.91120751 </i>
    <i name="e_0_energy">     34.91120751 </i>
   </energy>
  </scstep>
  <scstep>
   <time name="dav">    0.97    0.97</time>
   <time name="total">    0.97    0.98</time>
   <energy>
    <i name="e_fr_energy">    -16.10037741 </i>
    <i name="e_wo_entrp">    -16.10037741 </i>
    <i name="e_0_energy">    -16.10037741 </i>
   </energy>
  </scstep>
  <scstep>
   <time name="dav">    0.88    0.88</time>
   <time name="total">    0.88    0.89</time>
   <energy>
    <i name="e_fr_energy">    -17.56872822 </i>
    <i name="e_wo_entrp">    -17.56872822 </i>
    <i name="e_0_energy">    -17.56872822 </i>
   </energy>
  </scstep>
  <scstep>
   <time name="dav">    1.13    1.13</time>
   <time name="total">    1.31    1.32</time>
   <energy>
    <i name="e_fr_energy">    -17.61745590 </i>
    <i name="e_wo_entrp">    -17.61745590 </i>
    <i name="e_0_energy">    -17.61745590 </i>
   </energy>
  </scstep>
  <scstep>
   <time name="dav">    0.91    0.91</time>
   <time name="total">    1.95    1.96</time>
   <energy>
    <i name="e_fr_energy">    -17.37004868 </i>
    <i name="e_wo_entrp">    -17.37004868 </i>
    <i name="e_0_energy">    -17.37004868 </i>
   </energy>
  </scstep>
  <scstep>
   <time name="dav">    0.79    0.79</time>
   <time name="total">    1.89    1.90</time>
   <energy>
    <i name="e_fr_energy">    -17.29205555 </i>
    <i name="e_wo_entrp">    -17.29205555 </i>
    <i name="e_0_energy">    -17.29205555 </i>
   </energy>
  </scstep>
  <scstep>
   <time name="dav">    0.99    0.99</time>
   <time name="total">    2.08    2.16</time>
   <energy>
    <i name="e_fr_energy">    -17.29241277 </i>
    <i name="e_wo_entrp">    -17.29241277 </i>
    <i name="e_0_energy">    -17.29241277 </i>
   </energy>
  </scstep>
  <scstep>
   <time name="dav">    0.79    0.79</time>
   <time name="total">    1.89    1.90</time>
   <energy>
    <i name="e_fr_energy">    -17.29350011 </i>
    <i name="e_wo_entrp">    -17.29350011 </i>
    <i name="e_0_energy">    -17.29350011 </i>
   </energy>
  </scstep>
  <scstep>
   <time name="dav">    0.69    0.69</time>
   <time name="total">    1.71    1.75</time>
   <energy>
    <i name="e_fr_energy">    -17.29452996 </i>
    <i name="e_wo_entrp">    -17.29452996 </i>
    <i name="e_0_energy">    -17.29452996 </i>
   </energy>
  </scstep>
  <scstep>
   <time name="dav">    0.59    0.59</time>
   <time name="total">    1.78    1.87</time>
   <energy>
    <i name="e_fr_energy">    -17.29519701 </i>
    <i name="e_wo_entrp">    -17.29519701 </i>
    <i name="e_0_energy">    -17.29519701 </i>
   </energy>
  </scstep>
  <scstep>
   <time name="dav">    0.59    0.60</time>
   <time name="total">    1.61    1.63</time>
   <energy>
    <i name="e_fr_energy">    -17.29591713 </i>
    <i name="e_wo_entrp">    -17.29591713 </i>
    <i name="e_0_energy">    -17.29591713 </i>
   </energy>
  </scstep>
  <scstep>
   <time name="dav">    0.57    0.57</time>
   <time name="total">    1.79    1.81</time>
   <energy>
    <i name="e_fr_energy">    -17.29602074 </i>
    <i name="e_wo_entrp">    -17.29602074 </i>
    <i name="e_0_energy">    -17.29602074 </i>
   </energy>
  </scstep>
  <scstep>
   <time name="dav">    0.60    0.60</time>
   <time name="total">    1.64    1.66</time>
   <energy>
    <i name="alphaZ">      8.81598031 </i>
    <i name="ewald">    -81.24181609 </i>
    <i name="hartreedc">  -1455.56437208 </i>
    <i name="XCdc">     94.72728142 </i>
    <i name="pawpsdc">    904.75235392 </i>
    <i name="pawaedc">   -906.87348754 </i>
    <i name="eentropy">      0.00000000 </i>
    <i name="bandstr">   -367.84434613 </i>
    <i name="atom">   1785.93233605 </i>
    <i name="e_fr_energy">    -17.29607015 </i>
    <i name="e_wo_entrp">    -17.29607015 </i>
    <i name="e_0_energy">    -17.29607015 </i>
   </energy>
  </scstep>
  <parameters_embedded>
   <separator name="dft+d2" >
    <i type="logical" name="LVDW"> F  </i>
   </separator>
  </parameters_embedded>
  <structure>
   <crystal>
    <varray name="basis" >
     <v>       8.00000000       0.00000000       0.00000000 </v>
     <v>       0.00000000       8.00000000       0.00000000 </v>
     <v>       0.00000000       0.00000000       8.00000000 </v>
    </varray>
    <i name="volume">    512.00000000 </i>
    <varray name="rec_basis" >
     <v>       0.12500000       0.00000000       0.00000000 </v>
     <v>       0.00000000       0.12500000       0.00000000 </v>
     <v>       0.00000000       0.00000000       0.12500000 </v>
    </varray>
   </crystal>
   <varray name="positions" >
    <v>       0.00000000       0.00000000       0.00000000 </v>
    <v>       0.12766750       0.12766750       0.12766750 </v>
    <v>       0.87233250       0.87233250       0.12766750 </v>
    <v>       0.87233250       0.12766750       0.87233250 </v>
    <v>       0.12766750       0.87233250       0.87233250 </v>
   </varray>
  </structure>
  <varray name="forces" >
   <v>       0.00000000       0.00000000       0.00000000 </v>
   <v>       0.11076122       0.11076122       0.11076122 </v>
   <v>      -0.11076122      -0.11076122       0.11076122 </v>
   <v>      -0.11076122       0.11076122      -0.11076122 </v>
   <v>       0.11076122      -0.11076122      -0.11076122 </v>
  </varray>
  <varray name="stress" >
   <v>       0.01685516       0.00000000       0.00000000 </v>
   <v>       0.00000000       0.01685516       0.00000000 </v>
   <v>       0.00000000       0.00000000       0.01685516 </v>
  </varray>
  <energy>
   <i name="e_fr_energy">    -17.29607015 </i>
   <i name="e_wo_entrp">    -17.29607015 </i>
   <i name="e_0_energy">      0.00000000 </i>
  </energy>
  <time name="totalsc">   26.98   27.79</time>
 </calculation>
 <calculation>
  <scstep>
   <time name="dav">    0.77    0.77</time>
   <time name="total">    1.88    1.88</time>
   <energy>
    <i name="alphaZ">      8.81598031 </i>
    <i name="ewald">    -92.07193447 </i>
    <i name="hartreedc">  -1445.70064244 </i>
    <i name="XCdc">     94.60870129 </i>
    <i name="pawpsdc">    904.75994591 </i>
    <i name="pawaedc">   -906.88115090 </i>
    <i name="eentropy">      0.00000000 </i>
    <i name="bandstr">   -366.75983437 </i>
    <i name="atom">   1785.93233605 </i>
    <i name="e_fr_energy">    -17.29659862 </i>
    <i name="e_wo_entrp">    -17.29659862 </i>
    <i name="e_0_energy">    -17.29659862 </i>
   </energy>
  </scstep>
  <scstep>
   <time name="dav">    0.86    0.86</time>
   <time name="total">    1.96    1.96</time>
   <energy>
    <i name="e_fr_energy">    -17.29881702 </i>
    <i name="e_wo_entrp">    -17.29881702 </i>
    <i name="e_0_energy">    -17.29881702 </i>
   </energy>
  </scstep>
  <scstep>
   <time name="dav">    0.86    0.86</time>
   <time name="total">    1.91    1.93</time>
   <energy>
    <i name="e_fr_energy">    -17.29871404 </i>
    <i name="e_wo_entrp">    -17.29871404 </i>
    <i name="e_0_energy">    -17.29871404 </i>
   </energy>
  </scstep>
  <scstep>
   <time name="dav">    0.71    0.71</time>
   <time name="total">    1.73    1.74</time>
   <energy>
    <i name="alphaZ">      8.81598031 </i>
    <i name="ewald">    -92.07193447 </i>
    <i name="hartreedc">  -1445.25737044 </i>
    <i name="XCdc">     94.59902709 </i>
    <i name="pawpsdc">    902.55123025 </i>
    <i name="pawaedc">   -904.65304082 </i>
    <i name="eentropy">      0.00000000 </i>
    <i name="bandstr">   -367.21490848 </i>
    <i name="atom">   1785.93233605 </i>
    <i name="e_fr_energy">    -17.29868052 </i>
    <i name="e_wo_entrp">    -17.29868052 </i>
    <i name="e_0_energy">    -17.29868052 </i>
   </energy>
  </scstep>
  <structure>
   <crystal>
    <varray name="basis" >
     <v>       8.00000000       0.00000000       0.00000000 </v>
     <v>       0.00000000       8.00000000       0.00000000 </v>
     <v>       0.00000000       0.00000000       8.00000000 </v>
    </varray>
    <i name="volume">    512.00000000 </i>
    <varray name="rec_basis" >
     <v>       0.12500000       0.00000000       0.00000000 </v>
     <v>       0.00000000       0.12500000       0.00000000 </v>
     <v>       0.00000000       0.00000000       0.12500000 </v>
    </varray>
   </crystal>
   <varray name="positions" >
    <v>       0.00000000       0.00000000       0.00000000 </v>
    <v>       0.12833543       0.12833543       0.12833543 </v>
    <v>       0.87166457       0.87166457       0.12833543 </v>
    <v>       0.87166457       0.12833543       0.87166457 </v>
    <v>       0.12833543       0.87166457       0.87166457 </v>
   </varray>
  </structure>
  <varray name="forces" >
   <v>       0.00000000       0.00000000       0.00000000 </v>
   <v>      -0.02050862      -0.02050862      -0.02050862 </v>
   <v>       0.02050862       0.02050862      -0.02050862 </v>
   <v>       0.02050862      -0.02050862       0.02050862 </v>
   <v>      -0.02050862       0.02050862       0.02050862 </v>
  </varray>
  <varray name="stress" >
   <v>      -1.82501980       0.00000000       0.00000000 </v>
   <v>       0.00000000      -1.82501980       0.00000000 </v>
   <v>       0.00000000       0.00000000      -1.82501980 </v>
  </varray>
  <energy>
   <i name="e_fr_energy">    -17.29868052 </i>
   <i name="e_wo_entrp">    -17.29868052 </i>
   <i name="e_0_energy">      0.00000000 </i>
  </energy>
  <time name="totalsc">   10.94   11.30</time>
 </calculation>
 <calculation>
  <scstep>
   <time name="dav">    0.92    0.92</time>
   <time name="total">    2.13    2.14</time>
   <energy>
    <i name="alphaZ">      8.81598031 </i>
    <i name="ewald">    -90.38880438 </i>
    <i name="hartreedc">  -1446.75452945 </i>
    <i name="XCdc">     94.61653166 </i>
    <i name="pawpsdc">    902.15894861 </i>
    <i name="pawaedc">   -904.25668773 </i>
    <i name="eentropy">      0.00000000 </i>
    <i name="bandstr">   -367.42258723 </i>
    <i name="atom">   1785.93233605 </i>
    <i name="e_fr_energy">    -17.29881216 </i>
    <i name="e_wo_entrp">    -17.29881216 </i>
    <i name="e_0_energy">    -17.29881216 </i>
   </energy>
  </scstep>
  <scstep>
   <time name="dav">    0.94    0.94</time>
   <time name="total">    1.84    1.85</time>
   <energy>
    <i name="alphaZ">      8.81598031 </i>
    <i name="ewald">    -90.38880438 </i>
    <i name="hartreedc">  -1446.82476086 </i>
    <i name="XCdc">     94.61769500 </i>
    <i name="pawpsdc">    902.31003281 </i>
    <i name="pawaedc">   -904.40875215 </i>
    <i name="eentropy">      0.00000000 </i>
    <i name="bandstr">   -367.35259524 </i>
    <i name="atom">   1785.93233605 </i>
    <i name="e_fr_energy">    -17.29886846 </i>
    <i name="e_wo_entrp">    -17.29886846 </i>
    <i name="e_0_energy">    -17.29886846 </i>
   </energy>
  </scstep>
  <structure>
   <crystal>
    <varray name="basis" >
     <v>       8.00000000       0.00000000       0.00000000 </v>
     <v>       0.00000000       8.00000000       0.00000000 </v>
     <v>       0.00000000       0.00000000       8.00000000 </v>
    </varray>
    <i name="volume">    512.00000000 </i>
    <varray name="rec_basis" >
     <v>       0.12500000       0.00000000       0.00000000 </v>
     <v>       0.00000000       0.12500000       0.00000000 </v>
     <v>       0.00000000       0.00000000       0.12500000 </v>
    </varray>
   </crystal>
   <varray name="positions" >
    <v>       0.00000000       0.00000000       0.00000000 </v>
    <v>       0.12823107       0.12823107       0.12823107 </v>
    <v>       0.87176893       0.87176893       0.12823107 </v>
    <v>       0.87176893       0.12823107       0.87176893 </v>
    <v>       0.12823107       0.87176893       0.87176893 </v>
   </varray>
  </structure>
  <varray name="forces" >
   <v>       0.00000000       0.00000000       0.00000000 </v>
   <v>      -0.00600553      -0.00600553      -0.00600553 </v>
   <v>       0.00600553       0.00600553      -0.00600553 </v>
   <v>       0.00600553      -0.00600553       0.00600553 </v>
   <v>      -0.00600553       0.00600553       0.00600553 </v>
  </varray>
  <varray name="stress" >
   <v>      -1.42469556       0.00000000       0.00000000 </v>
   <v>       0.00000000      -1.42469556       0.00000000 </v>
   <v>       0.00000000       0.00000000      -1.42469556 </v>
  </varray>
  <energy>
   <i name="e_fr_energy">    -17.29886846 </i>
   <i name="e_wo_entrp">    -17.29886846 </i>
   <i name="e_0_energy">      0.00000000 </i>
  </energy>
  <time name="totalsc">    6.93    7.05</time>
  <eigenvalues>
   <array>
    <dimension dim="1">band</dimension>
    <dimension dim="2">kpoint</dimension>
    <dimension dim="3">spin</dimension>
    <field>eigene</field>
    <field>occ</field>
    <set>
     <set comment="spin 1">
      <set comment="kpoint 1">
       <r>  -23.0063    1.0000 </r>
       <r>  -19.8417    1.0000 </r>
       <r>  -19.8417    1.0000 </r>
       <r>  -19.8417    1.0000 </r>
       <r>  -14.1944    1.0000 </r>
       <r>  -10.9564    1.0000 </r>
       <r>  -10.9564    1.0000 </r>
       <r>  -10.9564    1.0000 </r>
       <r>   -7.5699    1.0000 </r>
       <r>   -7.5699    1.0000 </r>
       <r>   -6.9496    1.0000 </r>
       <r>   -6.9496    1.0000 </r>
       <r>   -6.9496    1.0000 </r>
       <r>   -6.0309    1.0000 </r>
       <r>   -6.0309    1.0000 </r>
       <r>   -6.0309    1.0000 </r>
       <r>   -1.2193    0.0000 </r>
       <r>    0.1993    0.0000 </r>
       <r>    0.1993    0.0000 </r>
       <r>    0.4366    0.0000 </r>
      </set>
     </set>
    </set>
   </array>
  </eigenvalues>
  <separator name="orbital magnetization" >
   <v name="MAGDIPOLOUT">      0.00000000      0.00000000      0.00000000</v>
  </separator>
  <dos>
   <i name="efermi">     -5.06409437 </i>
   <total>
    <array>
     <dimension dim="1">gridpoints</dimension>
     <dimension dim="2">spin</dimension>
     <field>energy</field>
     <field>total</field>
     <field>integrated</field>
     <set>
      <set comment="spin 1">
       <r>   -25.0063     0.0000     0.0000 </r>
       <r>   -24.9149     0.0000     0.0000 </r>
       <r>   -24.8234     0.0000     0.0000 </r>
       <r>   -24.7319     0.0000     0.0000 </r>
       <r>   -24.6404     0.0000     0.0000 </r>
       <r>   -24.5490     0.0000     0.0000 </r>
       <r>   -24.4575     0.0000     0.0000 </r>
       <r>   -24.3660     0.0000     0.0000 </r>
       <r>   -24.2745     0.0000     0.0000 </r>
       <r>   -24.1830     0.0000     0.0000 </r>
       <r>   -24.0916     0.0000     0.0000 </r>
       <r>   -24.0001     0.0000     0.0000 </r>
       <r>   -23.9086     0.0000     0.0000 </r>
       <r>   -23.8171     0.0000     0.0000 </r>
       <r>   -23.7257     0.0000     0.0000 </r>
       <r>   -23.6342     0.0001     0.0000 </r>
       <r>   -23.5427     0.0015     0.0001 </r>
       <r>   -23.4512     0.0165     0.0017 </r>
       <r>   -23.3598     0.1180     0.0125 </r>
       <r>   -23.2683     0.5634     0.0640 </r>
       <r>   -23.1768     1.7934     0.2280 </r>
       <r>   -23.0853     3.8087     0.5765 </r>
       <r>   -22.9939     5.3990     1.0703 </r>
       <r>   -22.9024     5.1094     1.5377 </r>
       <r>   -22.8109     3.2280     1.8330 </r>
       <r>   -22.7194     1.3611     1.9575 </r>
       <r>   -22.6279     0.3828     1.9925 </r>
       <r>   -22.5365     0.0718     1.9991 </r>
       <r>   -22.4450     0.0090     1.9999 </r>
       <r>   -22.3535     0.0007     2.0000 </r>
       <r>   -22.2620     0.0000     2.0000 </r>
       <r>   -22.1706     0.0000     2.0000 </r>
       <r>   -22.0791     0.0000     2.0000 </r>
       <r>   -21.9876     0.0000     2.0000 </r>
       <r>   -21.8961     0.0000     2.0000 </r>
       <r>   -21.8047     0.0000     2.0000 </r>
       <r>   -21.7132     0.0000     2.0000 </r>
       <r>   -21.6217     0.0000     2.0000 </r>
       <r>   -21.5302     0.0000     2.0000 </r>
       <r>   -21.4387     0.0000     2.0000 </r>
       <r>   -21.3473     0.0000     2.0000 </r>
       <r>   -21.2558     0.0000     2.0000 </r>
       <r>   -21.1643     0.0000     2.0000 </r>
       <r>   -21.0728     0.0000     2.0000 </r>
       <r>   -20.9814     0.0000     2.0000 </r>
       <r>   -20.8899     0.0000     2.0000 </r>
       <r>   -20.7984     0.0000     2.0000 </r>
       <r>   -20.7069     0.0000     2.0000 </r>
       <r>   -20.6155     0.0000     2.0000 </r>
       <r>   -20.5240     0.0000     2.0000 </r>
       <r>   -20.4325     0.0009     2.0001 </r>
       <r>   -20.3410     0.0126     2.0012 </r>
       <r>   -20.2496     0.1152     2.0118 </r>
       <r>   -20.1581     0.7000     2.0758 </r>
       <r>   -20.0666     2.8359     2.3352 </r>
       <r>   -19.9751     7.6625     3.0362 </r>
       <r>   -19.8836    13.8160     4.3000 </r>
       <r>   -19.7922    16.6295     5.8212 </r>
       <r>   -19.7007    13.3630     7.0436 </r>
       <r>   -19.6092     7.1681     7.6993 </r>
       <r>   -19.5177     2.5658     7.9340 </r>
       <r>   -19.4263     0.6125     7.9901 </r>
       <r>   -19.3348     0.0974     7.9990 </r>
       <r>   -19.2433     0.0103     7.9999 </r>
       <r>   -19.1518     0.0007     8.0000 </r>
       <r>   -19.0604     0.0000     8.0000 </r>
       <r>   -18.9689     0.0000     8.0000 </r>
       <r>   -18.8774     0.0000     8.0000 </r>
       <r>   -18.7859     0.0000     8.0000 </r>
       <r>   -18.6945     0.0000     8.0000 </r>
       <r>   -18.6030     0.0000     8.0000 </r>
       <r>   -18.5115     0.0000     8.0000 </r>
       <r>   -18.4200     0.0000     8.0000 </r>
       <r>   -18.3285     0.0000     8.0000 </r>
       <r>   -18.2371     0.0000     8.0000 </r>
       <r>   -18.1456     0.0000     8.0000 </r>
       <r>   -18.0541     0.0000     8.0000 </r>
       <r>   -17.9626     0.0000     8.0000 </r>
       <r>   -17.8712     0.0000     8.0000 </r>
       <r>   -17.7797     0.0000     8.0000 </r>
       <r>   -17.6882     0.0000     8.0000 </r>
       <r>   -17.5967     0.0000     8.0000 </r>
       <r>   -17.5053     0.0000     8.0000 </r>
       <r>   -17.4138     0.0000     8.0000 </r>
       <r>   -17.3223     0.0000     8.0000 </r>
       <r>   -17.2308     0.0000     8.0000 </r>
       <r>   -17.1394     0.0000     8.0000 </r>
       <r>   -17.0479     0.0000     8.0000 </r>
       <r>   -16.9564     0.0000     8.0000 </r>
       <r>   -16.8649     0.0000     8.0000 </r>
       <r>   -16.7734     0.0000     8.0000 </r>
       <r>   -16.6820     0.0000     8.0000 </r>
       <r>   -16.5905     0.0000     8.0000 </r>
       <r>   -16.4990     0.0000     8.0000 </r>
       <r>   -16.4075     0.0000     8.0000 </r>
       <r>   -16.3161     0.0000     8.0000 </r>
       <r>   -16.2246     0.0000     8.0000 </r>
       <r>   -16.1331     0.0000     8.0000 </r>
       <r>   -16.0416     0.0000     8.0000 </r>
       <r>   -15.9502     0.0000     8.0000 </r>
       <r>   -15.8587     0.0000     8.0000 </r>
       <r>   -15.7672     0.0000     8.0000 </r>
       <r>   -15.6757     0.0000     8.0000 </r>
       <r>   -15.5843     0.0000     8.0000 </r>
       <r>   -15.4928     0.0000     8.0000 </r>
       <r>   -15.4013     0.0000     8.0000 </r>
       <r>   -15.3098     0.0000     8.0000 </r>
       <r>   -15.2183     0.0000     8.0000 </r>
       <r>   -15.1269     0.0000     8.0000 </r>
       <r>   -15.0354     0.0000     8.0000 </r>
       <r>   -14.9439     0.0000     8.0000 </r>
       <r>   -14.8524     0.0000     8.0000 </r>
       <r>   -14.7610     0.0006     8.0001 </r>
       <r>   -14.6695     0.0079     8.0008 </r>
       <r>   -14.5780     0.0644     8.0067 </r>
       <r>   -14.4865     0.3515     8.0388 </r>
       <r>   -14.3951     1.2792     8.1558 </r>
       <r>   -14.3036     3.1053     8.4399 </r>
       <r>   -14.2121     5.0309     8.9001 </r>
       <r>   -14.1206     5.4412     9.3979 </r>
       <r>   -14.0292     3.9288     9.7573 </r>
       <r>   -13.9377     1.8936     9.9305 </r>
       <r>   -13.8462     0.6089     9.9862 </r>
       <r>   -13.7547     0.1306     9.9981 </r>
       <r>   -13.6632     0.0187     9.9998 </r>
       <r>   -13.5718     0.0018    10.0000 </r>
       <r>   -13.4803     0.0001    10.0000 </r>
       <r>   -13.3888     0.0000    10.0000 </r>
       <r>   -13.2973     0.0000    10.0000 </r>
       <r>   -13.2059     0.0000    10.0000 </r>
       <r>   -13.1144     0.0000    10.0000 </r>
       <r>   -13.0229     0.0000    10.0000 </r>
       <r>   -12.9314     0.0000    10.0000 </r>
       <r>   -12.8400     0.0000    10.0000 </r>
       <r>   -12.7485     0.0000    10.0000 </r>
       <r>   -12.6570     0.0000    10.0000 </r>
       <r>   -12.5655     0.0000    10.0000 </r>
       <r>   -12.4741     0.0000    10.0000 </r>
       <r>   -12.3826     0.0000    10.0000 </r>
       <r>   -12.2911     0.0000    10.0000 </r>
       <r>   -12.1996     0.0000    10.0000 </r>
       <r>   -12.1081     0.0000    10.0000 </r>
       <r>   -12.0167     0.0000    10.0000 </r>
       <r>   -11.9252     0.0000    10.0000 </r>
       <r>   -11.8337     0.0000    10.0000 </r>
       <r>   -11.7422     0.0000    10.0000 </r>
       <r>   -11.6508     0.0000    10.0000 </r>
       <r>   -11.5593     0.0006    10.0001 </r>
       <r>   -11.4678     0.0091    10.0009 </r>
       <r>   -11.3763     0.0880    10.0090 </r>
       <r>   -11.2849     0.5647    10.0606 </r>
       <r>   -11.1934     2.4133    10.2814 </r>
       <r>   -11.1019     6.8783    10.9106 </r>
       <r>   -11.0104    13.0816    12.1072 </r>
       <r>   -10.9189    16.6076    13.6264 </r>
       <r>   -10.8275    14.0761    14.9141 </r>
       <r>   -10.7360     7.9643    15.6426 </r>
       <r>   -10.6445     3.0072    15.9177 </r>
       <r>   -10.5530     0.7573    15.9870 </r>
       <r>   -10.4616     0.1271    15.9986 </r>
       <r>   -10.3701     0.0142    15.9999 </r>
       <r>   -10.2786     0.0011    16.0000 </r>
       <r>   -10.1871     0.0001    16.0000 </r>
       <r>   -10.0957     0.0000    16.0000 </r>
       <r>   -10.0042     0.0000    16.0000 </r>
       <r>    -9.9127     0.0000    16.0000 </r>
       <r>    -9.8212     0.0000    16.0000 </r>
       <r>    -9.7298     0.0000    16.0000 </r>
       <r>    -9.6383     0.0000    16.0000 </r>
       <r>    -9.5468     0.0000    16.0000 </r>
       <r>    -9.4553     0.0000    16.0000 </r>
       <r>    -9.3638     0.0000    16.0000 </r>
       <r>    -9.2724     0.0000    16.0000 </r>
       <r>    -9.1809     0.0000    16.0000 </r>
       <r>    -9.0894     0.0000    16.0000 </r>
       <r>    -8.9979     0.0000    16.0000 </r>
       <r>    -8.9065     0.0000    16.0000 </r>
       <r>    -8.8150     0.0000    16.0000 </r>
       <r>    -8.7235     0.0000    16.0000 </r>
       <r>    -8.6320     0.0000    16.0000 </r>
       <r>    -8.5406     0.0000    16.0000 </r>
       <r>    -8.4491     0.0000    16.0000 </r>
       <r>    -8.3576     0.0000    16.0000 </r>
       <r>    -8.2661     0.0000    16.0000 </r>
       <r>    -8.1747     0.0004    16.0000 </r>
       <r>    -8.0832     0.0058    16.0006 </r>
       <r>    -7.9917     0.0563    16.0057 </r>
       <r>    -7.9002     0.3639    16.0390 </r>
       <r>    -7.8087     1.5683    16.1825 </r>
       <r>    -7.7173     4.5069    16.5947 </r>
       <r>    -7.6258     8.6424    17.3853 </r>
       <r>    -7.5343    11.0636    18.3974 </r>
       <r>    -7.4428     9.4686    19.2635 </r>
       <r>    -7.3514     5.5247    19.7689 </r>
       <r>    -7.2599     2.8313    20.0279 </r>
       <r>    -7.1684     3.5896    20.3563 </r>
       <r>    -7.0769     8.1582    21.1026 </r>
       <r>    -6.9855    14.1742    22.3992 </r>
       <r>    -6.8940    16.5969    23.9174 </r>
       <r>    -6.8025    12.9823    25.1050 </r>
       <r>    -6.7110     6.7790    25.7251 </r>
       <r>    -6.6196     2.3629    25.9413 </r>
       <r>    -6.5281     0.5622    25.9927 </r>
       <r>    -6.4366     0.2059    26.0115 </r>
       <r>    -6.3451     0.7364    26.0789 </r>
       <r>    -6.2536     2.9195    26.3459 </r>
       <r>    -6.1622     7.8098    27.0604 </r>
       <r>    -6.0707    13.9445    28.3359 </r>
       <r>    -5.9792    16.6208    29.8564 </r>
       <r>    -5.8877    13.2261    31.0662 </r>
       <r>    -5.7963     7.0256    31.7089 </r>
       <r>    -5.7048     2.4903    31.9367 </r>
       <r>    -5.6133     0.5887    31.9906 </r>
       <r>    -5.5218     0.0927    31.9990 </r>
       <r>    -5.4304     0.0097    31.9999 </r>
       <r>    -5.3389     0.0007    32.0000 </r>
       <r>    -5.2474     0.0000    32.0000 </r>
       <r>    -5.1559     0.0000    32.0000 </r>
       <r>    -5.0645     0.0000    32.0000 </r>
       <r>    -4.9730     0.0000    32.0000 </r>
       <r>    -4.8815     0.0000    32.0000 </r>
       <r>    -4.7900     0.0000    32.0000 </r>
       <r>    -4.6985     0.0000    32.0000 </r>
       <r>    -4.6071     0.0000    32.0000 </r>
       <r>    -4.5156     0.0000    32.0000 </r>
       <r>    -4.4241     0.0000    32.0000 </r>
       <r>    -4.3326     0.0000    32.0000 </r>
       <r>    -4.2412     0.0000    32.0000 </r>
       <r>    -4.1497     0.0000    32.0000 </r>
       <r>    -4.0582     0.0000    32.0000 </r>
       <r>    -3.9667     0.0000    32.0000 </r>
       <r>    -3.8753     0.0000    32.0000 </r>
       <r>    -3.7838     0.0000    32.0000 </r>
       <r>    -3.6923     0.0000    32.0000 </r>
       <r>    -3.6008     0.0000    32.0000 </r>
       <r>    -3.5094     0.0000    32.0000 </r>
       <r>    -3.4179     0.0000    32.0000 </r>
       <r>    -3.3264     0.0000    32.0000 </r>
       <r>    -3.2349     0.0000    32.0000 </r>
       <r>    -3.1434     0.0000    32.0000 </r>
       <r>    -3.0520     0.0000    32.0000 </r>
       <r>    -2.9605     0.0000    32.0000 </r>
       <r>    -2.8690     0.0000    32.0000 </r>
       <r>    -2.7775     0.0000    32.0000 </r>
       <r>    -2.6861     0.0000    32.0000 </r>
       <r>    -2.5946     0.0000    32.0000 </r>
       <r>    -2.5031     0.0000    32.0000 </r>
       <r>    -2.4116     0.0000    32.0000 </r>
       <r>    -2.3202     0.0000    32.0000 </r>
       <r>    -2.2287     0.0000    32.0000 </r>
       <r>    -2.1372     0.0000    32.0000 </r>
       <r>    -2.0457     0.0000    32.0000 </r>
       <r>    -1.9542     0.0000    32.0000 </r>
       <r>    -1.8628     0.0001    32.0000 </r>
       <r>    -1.7713     0.0010    32.0001 </r>
       <r>    -1.6798     0.0113    32.0011 </r>
       <r>    -1.5883     0.0867    32.0091 </r>
       <r>    -1.4969     0.4438    32.0497 </r>
       <r>    -1.4054     1.5140    32.1882 </r>
       <r>    -1.3139     3.4457    32.5034 </r>
       <r>    -1.2224     5.2340    32.9821 </r>
       <r>    -1.1310     5.3077    33.4677 </r>
       <r>    -1.0395     3.5933    33.7964 </r>
       <r>    -0.9480     1.6237    33.9449 </r>
       <r>    -0.8565     0.4895    33.9897 </r>
       <r>    -0.7651     0.0984    33.9987 </r>
       <r>    -0.6736     0.0132    33.9999 </r>
       <r>    -0.5821     0.0012    34.0000 </r>
       <r>    -0.4906     0.0001    34.0000 </r>
       <r>    -0.3991     0.0005    34.0000 </r>
       <r>    -0.3077     0.0069    34.0007 </r>
       <r>    -0.2162     0.0649    34.0066 </r>
       <r>    -0.1247     0.4086    34.0440 </r>
       <r>    -0.0332     1.7179    34.2011 </r>
       <r>     0.0582     4.8476    34.6446 </r>
       <r>     0.1497     9.2888    35.4943 </r>
       <r>     0.2412    12.4473    36.6329 </r>
       <r>     0.3327    12.4413    37.7710 </r>
       <r>     0.4241    10.2207    38.7060 </r>
       <r>     0.5156     7.2912    39.3729 </r>
       <r>     0.6071     4.2760    39.7641 </r>
       <r>     0.6986     1.8703    39.9352 </r>
       <r>     0.7900     0.5718    39.9875 </r>
       <r>     0.8815     0.1186    39.9983 </r>
       <r>     0.9730     0.0165    39.9999 </r>
       <r>     1.0645     0.0015    40.0000 </r>
       <r>     1.1560     0.0001    40.0000 </r>
       <r>     1.2474     0.0000    40.0000 </r>
       <r>     1.3389     0.0000    40.0000 </r>
       <r>     1.4304     0.0000    40.0000 </r>
       <r>     1.5219     0.0000    40.0000 </r>
       <r>     1.6133     0.0000    40.0000 </r>
       <r>     1.7048     0.0000    40.0000 </r>
       <r>     1.7963     0.0000    40.0000 </r>
       <r>     1.8878     0.0000    40.0000 </r>
       <r>     1.9792     0.0000    40.0000 </r>
       <r>     2.0707     0.0000    40.0000 </r>
       <r>     2.1622     0.0000    40.0000 </r>
       <r>     2.2537     0.0000    40.0000 </r>
       <r>     2.3451     0.0000    40.0000 </r>
       <r>     2.4366     0.0000    40.0000 </r>
      </set>
     </set>
    </array>
   </total>
  </dos>
 </calculation>
 <structure name="finalpos" >
  <crystal>
   <varray name="basis" >
    <v>       8.00000000       0.00000000       0.00000000 </v>
    <v>       0.00000000       8.00000000       0.00000000 </v>
    <v>       0.00000000       0.00000000       8.00000000 </v>
   </varray>
   <i name="volume">    512.00000000 </i>
   <varray name="rec_basis" >
    <v>       0.12500000       0.00000000       0.00000000 </v>
    <v>       0.00000000       0.12500000       0.00000000 </v>
    <v>       0.00000000       0.00000000       0.12500000 </v>
   </varray>
  </crystal>
  <varray name="positions" >
   <v>       0.00000000       0.00000000       0.00000000 </v>
   <v>       0.12823107       0.12823107       0.12823107 </v>
   <v>       0.87176893       0.87176893       0.12823107 </v>
   <v>       0.87176893       0.12823107       0.87176893 </v>
   <v>       0.12823107       0.87176893       0.87176893 </v>
  </varray>
 </structure>
</modeling>
