   5   5   0   0
  0.1024000E+03  0.8000000E-09  0.8000000E-09  0.8000000E-09  0.5000000E-15
  1.000000000000000E-004
  CAR 
 unknown system                          
      3.73168476    -18.80715724  301     -9.01596353      1.00000000
    -18.807  0.0000E+00  0.0000E+00
    -18.732  0.0000E+00  0.0000E+00
    -18.657  0.0000E+00  0.0000E+00
    -18.582  0.0000E+00  0.0000E+00
    -18.507  0.0000E+00  0.0000E+00
    -18.432 -0.1374E-26 -0.1032E-27
    -18.356 -0.5068E-24 -0.3818E-25
    -18.281 -0.1409E-21 -0.1063E-22
    -18.206 -0.2947E-19 -0.2225E-20
    -18.131 -0.4631E-17 -0.3502E-18
    -18.056 -0.5468E-15 -0.4143E-16
    -17.981 -0.4700E-13 -0.3573E-14
    -17.906 -0.3120E-11 -0.2380E-12
    -17.830 -0.1547E-09 -0.1186E-10
    -17.755 -0.5740E-08 -0.4431E-09
    -17.680 -0.1589E-06 -0.1238E-07
    -17.605 -0.3274E-05 -0.2584E-06
    -17.530 -0.5001E-04 -0.4016E-05
    -17.455 -0.5631E-03 -0.4632E-04
    -17.380 -0.4631E-02 -0.3942E-03
    -17.305 -0.2741E-01 -0.2453E-02
    -17.229 -0.1134E+00 -0.1097E-01
    -17.154 -0.3069E+00 -0.3403E-01
    -17.079 -0.4288E+00 -0.6625E-01
    -17.004  0.2579E+00 -0.4688E-01
    -16.929  0.2649E+01  0.1521E+00
    -16.854  0.6187E+01  0.6170E+00
    -16.779  0.8272E+01  0.1238E+01
    -16.704  0.6939E+01  0.1760E+01
    -16.628  0.3472E+01  0.2021E+01
    -16.553  0.6619E+00  0.2070E+01
    -16.478 -0.3773E+00  0.2042E+01
    -16.403 -0.3600E+00  0.2015E+01
    -16.328 -0.1506E+00  0.2004E+01
    -16.253 -0.3997E-01  0.2001E+01
    -16.178 -0.7337E-02  0.2000E+01
    -16.102 -0.9642E-03  0.2000E+01
    -16.027 -0.9229E-04  0.2000E+01
    -15.952 -0.6500E-05  0.2000E+01
    -15.877 -0.3390E-06  0.2000E+01
    -15.802 -0.1315E-07  0.2000E+01
    -15.727 -0.3802E-09  0.2000E+01
    -15.652 -0.8228E-11  0.2000E+01
    -15.577 -0.1300E-12  0.2000E+01
    -15.501  0.0000E+00  0.2000E+01
    -15.426  0.0000E+00  0.2000E+01
    -15.351  0.0000E+00  0.2000E+01
    -15.276  0.0000E+00  0.2000E+01
    -15.201  0.0000E+00  0.2000E+01
    -15.126  0.0000E+00  0.2000E+01
    -15.051  0.0000E+00  0.2000E+01
    -14.976  0.0000E+00  0.2000E+01
    -14.900  0.0000E+00  0.2000E+01
    -14.825  0.0000E+00  0.2000E+01
    -14.750  0.0000E+00  0.2000E+01
    -14.675  0.0000E+00  0.2000E+01
    -14.600  0.0000E+00  0.2000E+01
    -14.525  0.0000E+00  0.2000E+01
    -14.450  0.0000E+00  0.2000E+01
    -14.375  0.0000E+00  0.2000E+01
    -14.299  0.0000E+00  0.2000E+01
    -14.224  0.0000E+00  0.2000E+01
    -14.149  0.0000E+00  0.2000E+01
    -14.074  0.0000E+00  0.2000E+01
    -13.999  0.0000E+00  0.2000E+01
    -13.924  0.0000E+00  0.2000E+01
    -13.849  0.0000E+00  0.2000E+01
    -13.773  0.0000E+00  0.2000E+01
    -13.698  0.0000E+00  0.2000E+01
    -13.623  0.0000E+00  0.2000E+01
    -13.548  0.0000E+00  0.2000E+01
    -13.473  0.0000E+00  0.2000E+01
    -13.398  0.0000E+00  0.2000E+01
    -13.323  0.0000E+00  0.2000E+01
    -13.248  0.0000E+00  0.2000E+01
    -13.172  0.0000E+00  0.2000E+01
    -13.097  0.0000E+00  0.2000E+01
    -13.022  0.0000E+00  0.2000E+01
    -12.947  0.0000E+00  0.2000E+01
    -12.872  0.0000E+00  0.2000E+01
    -12.797  0.0000E+00  0.2000E+01
    -12.722  0.0000E+00  0.2000E+01
    -12.647  0.0000E+00  0.2000E+01
    -12.571  0.0000E+00  0.2000E+01
    -12.496  0.0000E+00  0.2000E+01
    -12.421  0.0000E+00  0.2000E+01
    -12.346  0.0000E+00  0.2000E+01
    -12.271  0.0000E+00  0.2000E+01
    -12.196  0.0000E+00  0.2000E+01
    -12.121  0.0000E+00  0.2000E+01
    -12.046  0.0000E+00  0.2000E+01
    -11.970  0.0000E+00  0.2000E+01
    -11.895  0.0000E+00  0.2000E+01
    -11.820  0.0000E+00  0.2000E+01
    -11.745  0.0000E+00  0.2000E+01
    -11.670  0.0000E+00  0.2000E+01
    -11.595  0.0000E+00  0.2000E+01
    -11.520  0.0000E+00  0.2000E+01
    -11.444  0.0000E+00  0.2000E+01
    -11.369  0.0000E+00  0.2000E+01
    -11.294  0.0000E+00  0.2000E+01
    -11.219  0.0000E+00  0.2000E+01
    -11.144  0.0000E+00  0.2000E+01
    -11.069  0.0000E+00  0.2000E+01
    -10.994  0.0000E+00  0.2000E+01
    -10.919  0.0000E+00  0.2000E+01
    -10.843 -0.2431E-27  0.2000E+01
    -10.768 -0.1023E-24  0.2000E+01
    -10.693 -0.3246E-22  0.2000E+01
    -10.618 -0.7743E-20  0.2000E+01
    -10.543 -0.1389E-17  0.2000E+01
    -10.468 -0.1872E-15  0.2000E+01
    -10.393 -0.1895E-13  0.2000E+01
    -10.318 -0.1395E-11  0.2000E+01
    -10.242 -0.7913E-10  0.2000E+01
    -10.167 -0.3358E-08  0.2000E+01
    -10.092 -0.1065E-06  0.2000E+01
    -10.017 -0.2516E-05  0.2000E+01
     -9.942 -0.4416E-04  0.2000E+01
     -9.867 -0.5730E-03  0.2000E+01
     -9.792 -0.5457E-02  0.2000E+01
     -9.716 -0.3769E-01  0.1997E+01
     -9.641 -0.1850E+00  0.1983E+01
     -9.566 -0.6172E+00  0.1936E+01
     -9.491 -0.1240E+01  0.1843E+01
     -9.416 -0.6859E+00  0.1792E+01
     -9.341  0.3935E+01  0.2087E+01
     -9.266  0.1363E+02  0.3111E+01
     -9.191  0.2303E+02  0.4842E+01
     -9.115  0.2393E+02  0.6639E+01
     -9.040  0.1545E+02  0.7800E+01
     -8.965  0.5250E+01  0.8195E+01
     -8.890 -0.2806E+00  0.8173E+01
     -8.815 -0.1295E+01  0.8076E+01
     -8.740 -0.7220E+00  0.8022E+01
     -8.665 -0.2325E+00  0.8004E+01
     -8.590 -0.5032E-01  0.8001E+01
     -8.514 -0.7696E-02  0.8000E+01
     -8.439 -0.8516E-03  0.8000E+01
     -8.364 -0.6906E-04  0.8000E+01
     -8.289 -0.4136E-05  0.8000E+01
     -8.214 -0.1838E-06  0.8000E+01
     -8.139 -0.6088E-08  0.8000E+01
     -8.064 -0.1506E-09  0.8000E+01
     -7.989 -0.2784E-11  0.8000E+01
     -7.913 -0.3547E-13  0.8000E+01
     -7.838  0.0000E+00  0.8000E+01
     -7.763  0.0000E+00  0.8000E+01
     -7.688  0.0000E+00  0.8000E+01
     -7.613  0.0000E+00  0.8000E+01
     -7.538  0.0000E+00  0.8000E+01
     -7.463  0.0000E+00  0.8000E+01
     -7.387  0.0000E+00  0.8000E+01
     -7.312  0.0000E+00  0.8000E+01
     -7.237  0.0000E+00  0.8000E+01
     -7.162  0.0000E+00  0.8000E+01
     -7.087  0.0000E+00  0.8000E+01
     -7.012  0.0000E+00  0.8000E+01
     -6.937  0.0000E+00  0.8000E+01
     -6.862  0.0000E+00  0.8000E+01
     -6.786  0.0000E+00  0.8000E+01
     -6.711  0.0000E+00  0.8000E+01
     -6.636  0.0000E+00  0.8000E+01
     -6.561  0.0000E+00  0.8000E+01
     -6.486  0.0000E+00  0.8000E+01
     -6.411  0.0000E+00  0.8000E+01
     -6.336  0.0000E+00  0.8000E+01
     -6.261  0.0000E+00  0.8000E+01
     -6.185  0.0000E+00  0.8000E+01
     -6.110  0.0000E+00  0.8000E+01
     -6.035  0.0000E+00  0.8000E+01
     -5.960  0.0000E+00  0.8000E+01
     -5.885  0.0000E+00  0.8000E+01
     -5.810  0.0000E+00  0.8000E+01
     -5.735  0.0000E+00  0.8000E+01
     -5.659  0.0000E+00  0.8000E+01
     -5.584  0.0000E+00  0.8000E+01
     -5.509  0.0000E+00  0.8000E+01
     -5.434  0.0000E+00  0.8000E+01
     -5.359  0.0000E+00  0.8000E+01
     -5.284  0.0000E+00  0.8000E+01
     -5.209  0.0000E+00  0.8000E+01
     -5.134  0.0000E+00  0.8000E+01
     -5.058  0.0000E+00  0.8000E+01
     -4.983  0.0000E+00  0.8000E+01
     -4.908  0.0000E+00  0.8000E+01
     -4.833  0.0000E+00  0.8000E+01
     -4.758  0.0000E+00  0.8000E+01
     -4.683  0.0000E+00  0.8000E+01
     -4.608  0.0000E+00  0.8000E+01
     -4.533  0.0000E+00  0.8000E+01
     -4.457  0.0000E+00  0.8000E+01
     -4.382  0.0000E+00  0.8000E+01
     -4.307  0.0000E+00  0.8000E+01
     -4.232  0.0000E+00  0.8000E+01
     -4.157  0.0000E+00  0.8000E+01
     -4.082  0.0000E+00  0.8000E+01
     -4.007  0.0000E+00  0.8000E+01
     -3.932  0.0000E+00  0.8000E+01
     -3.856  0.0000E+00  0.8000E+01
     -3.781  0.0000E+00  0.8000E+01
     -3.706  0.0000E+00  0.8000E+01
     -3.631  0.0000E+00  0.8000E+01
     -3.556  0.0000E+00  0.8000E+01
     -3.481  0.0000E+00  0.8000E+01
     -3.406  0.0000E+00  0.8000E+01
     -3.330  0.0000E+00  0.8000E+01
     -3.255  0.0000E+00  0.8000E+01
     -3.180  0.0000E+00  0.8000E+01
     -3.105  0.0000E+00  0.8000E+01
     -3.030  0.0000E+00  0.8000E+01
     -2.955  0.0000E+00  0.8000E+01
     -2.880  0.0000E+00  0.8000E+01
     -2.805  0.0000E+00  0.8000E+01
     -2.729  0.0000E+00  0.8000E+01
     -2.654  0.0000E+00  0.8000E+01
     -2.579  0.0000E+00  0.8000E+01
     -2.504  0.0000E+00  0.8000E+01
     -2.429  0.0000E+00  0.8000E+01
     -2.354  0.0000E+00  0.8000E+01
     -2.279 -0.3481E-28  0.8000E+01
     -2.204 -0.1523E-25  0.8000E+01
     -2.128 -0.5023E-23  0.8000E+01
     -2.053 -0.1246E-20  0.8000E+01
     -1.978 -0.2323E-18  0.8000E+01
     -1.903 -0.3255E-16  0.8000E+01
     -1.828 -0.3426E-14  0.8000E+01
     -1.753 -0.2618E-12  0.8000E+01
     -1.678 -0.1548E-10  0.8000E+01
     -1.603 -0.6837E-09  0.8000E+01
     -1.527 -0.2256E-07  0.8000E+01
     -1.452 -0.5548E-06  0.8000E+01
     -1.377 -0.1014E-04  0.8000E+01
     -1.302 -0.1372E-03  0.8000E+01
     -1.227 -0.1363E-02  0.8000E+01
     -1.152 -0.9848E-02  0.7999E+01
     -1.077 -0.5072E-01  0.7995E+01
     -1.001 -0.1791E+00  0.7982E+01
     -0.926 -0.3914E+00  0.7952E+01
     -0.851 -0.3103E+00  0.7929E+01
     -0.776  0.9918E+00  0.8004E+01
     -0.701  0.4046E+01  0.8308E+01
     -0.626  0.7367E+01  0.8861E+01
     -0.551  0.8151E+01  0.9474E+01
     -0.476  0.5638E+01  0.9897E+01
     -0.400  0.2146E+01  0.1006E+02
     -0.325  0.4933E-01  0.1006E+02
     -0.250 -0.4371E+00  0.1003E+02
     -0.175 -0.2708E+00  0.1001E+02
     -0.100 -0.9274E-01  0.1000E+02
     -0.025 -0.2110E-01  0.1000E+02
      0.050 -0.3378E-02  0.1000E+02
      0.125 -0.3902E-03  0.1000E+02
      0.201 -0.3299E-04  0.1000E+02
      0.276 -0.2058E-05  0.1000E+02
      0.351 -0.9527E-07  0.1000E+02
      0.426 -0.3283E-08  0.1000E+02
      0.501 -0.8448E-10  0.1000E+02
      0.576 -0.2024E-11  0.1000E+02
      0.651 -0.2470E-10  0.1000E+02
      0.727 -0.1141E-08  0.1000E+02
      0.802 -0.3946E-07  0.1000E+02
      0.877 -0.1017E-05  0.1000E+02
      0.952 -0.1951E-04  0.1000E+02
      1.027 -0.2770E-03  0.1000E+02
      1.102 -0.2894E-02  0.1000E+02
      1.177 -0.2202E-01  0.9998E+01
      1.252 -0.1199E+00  0.9989E+01
      1.328 -0.4518E+00  0.9955E+01
      1.403 -0.1080E+01  0.9874E+01
      1.478 -0.1132E+01  0.9789E+01
      1.553  0.1987E+01  0.9938E+01
      1.628  0.1042E+02  0.1072E+02
      1.703  0.2082E+02  0.1228E+02
      1.778  0.2482E+02  0.1415E+02
      1.853  0.1856E+02  0.1554E+02
      1.929  0.7945E+01  0.1614E+02
      2.004  0.7729E+00  0.1620E+02
      2.079 -0.1286E+01  0.1610E+02
      2.154 -0.9207E+00  0.1603E+02
      2.229 -0.3402E+00  0.1601E+02
      2.304 -0.8220E-01  0.1600E+02
      2.379 -0.1389E-01  0.1600E+02
      2.454 -0.1689E-02  0.1600E+02
      2.530 -0.1500E-03  0.1600E+02
      2.605 -0.9818E-05  0.1600E+02
      2.680 -0.4765E-06  0.1600E+02
      2.755 -0.1721E-07  0.1600E+02
      2.830 -0.4640E-09  0.1600E+02
      2.905 -0.9351E-11  0.1600E+02
      2.980 -0.1419E-12  0.1600E+02
      3.056  0.0000E+00  0.1600E+02
      3.131  0.0000E+00  0.1600E+02
      3.206  0.0000E+00  0.1600E+02
      3.281  0.0000E+00  0.1600E+02
      3.356  0.0000E+00  0.1600E+02
      3.431  0.0000E+00  0.1600E+02
      3.506  0.0000E+00  0.1600E+02
      3.581  0.0000E+00  0.1600E+02
      3.657  0.0000E+00  0.1600E+02
      3.732  0.0000E+00  0.1600E+02
