    5    5    1    1
  0.1024000E+03  0.8000000E-09  0.8000000E-09  0.8000000E-09  0.5000000E-15
  1.000000000000000E-004
  CAR 
 unknown system                          
    8    1    8
 
  0.0000000E+00  0.0000000E+00  0.0000000E+00  0.1000000E+01
   1      -16.807157
   2       -9.184340
   3       -9.184340
   4       -9.184340
   5       -0.609352
   6        1.731665
   7        1.731671
   8        1.731685
