       N       E                     dE             d eps       ncg     rms          rms(c)
DAV:   1     0.495083883612E+02    0.49508E+02   -0.17844E+03    16   0.424E+02
DAV:   2    -0.100353576228E+02   -0.59544E+02   -0.59549E+02    24   0.101E+02
DAV:   3    -0.264871379356E+02   -0.16452E+02   -0.16452E+02    16   0.707E+01
DAV:   4    -0.276282807474E+02   -0.11411E+01   -0.11611E+01    32   0.226E+01
DAV:   5    -0.276292340393E+02   -0.95329E-03   -0.95318E-03    32   0.657E-01    0.858E+00
DAV:   6    -0.246492339223E+02    0.29800E+01   -0.90271E+00    24   0.171E+01    0.383E+00
DAV:   7    -0.241433485036E+02    0.50589E+00   -0.82807E-01    32   0.503E+00    0.194E+00
DAV:   8    -0.239792662050E+02    0.16408E+00   -0.19664E-01    16   0.305E+00    0.272E-01
DAV:   9    -0.239786682279E+02    0.59798E-03   -0.65910E-03    16   0.491E-01    0.159E-01
DAV:  10    -0.239766979183E+02    0.19703E-02   -0.15718E-03    16   0.283E-01    0.689E-02
DAV:  11    -0.239847950996E+02   -0.80972E-02   -0.21247E-03    16   0.285E-01    0.690E-02
DAV:  12    -0.239868593410E+02   -0.20642E-02   -0.64762E-04    16   0.177E-01    0.235E-02
DAV:  13    -0.239881097815E+02   -0.12504E-02   -0.17476E-04    16   0.827E-02    0.593E-03
DAV:  14    -0.239881477095E+02   -0.37928E-04   -0.22881E-06    16   0.110E-02
   1 F= -.23988148E+02 E0= -.23999744E+02  d E =0.347874E-01
