<?xml version="1.0" encoding="ISO-8859-1"?>
<modeling>
 <generator>
  <i name="program" type="string">vasp </i>
  <i name="version" type="string">5.2.12  </i>
  <i name="subversion" type="string">11Nov11 complex                                                      parallel </i>
  <i name="platform" type="string">LinuxIFC </i>
  <i name="date" type="string">2012 10 31 </i>
  <i name="time" type="string">01:56:19 </i>
 </generator>
 <incar>
  <i type="string" name="PREC">normal</i>
  <i name="ENCUT">    400.00000000</i>
 </incar>
 <kpoints>
  <generation param="Monkhorst-Pack">
   <v type="int" name="divisions">       1        1        1 </v>
   <v name="usershift">      0.00000000       0.00000000       0.00000000 </v>
   <v name="genvec1">      1.00000000       0.00000000       0.00000000 </v>
   <v name="genvec2">      0.00000000       1.00000000       0.00000000 </v>
   <v name="genvec3">      0.00000000       0.00000000       1.00000000 </v>
   <v name="shift">      0.00000000       0.00000000       0.00000000 </v>
  </generation>
  <varray name="kpointlist" >
   <v>       0.00000000       0.00000000       0.00000000 </v>
  </varray>
  <varray name="weights" >
   <v>       1.00000000 </v>
  </varray>
 </kpoints>
 <parameters>
  <separator name="general" >
   <i type="string" name="SYSTEM">unknown system</i>
   <i type="logical" name="LCOMPAT"> F  </i>
  </separator>
  <separator name="electronic" >
   <i type="string" name="PREC">normal</i>
   <i name="ENMAX">    400.00000000</i>
   <i name="ENAUG">    644.87300000</i>
   <i name="EDIFF">      0.00010000</i>
   <i type="int" name="IALGO">    38</i>
   <i type="int" name="IWAVPR">    10</i>
   <i type="int" name="NBANDS">     8</i>
   <i name="NELECT">      8.00000000</i>
   <i type="int" name="TURBO">     0</i>
   <i type="int" name="IRESTART">     0</i>
   <i type="int" name="NREBOOT">     0</i>
   <i type="int" name="NMIN">     0</i>
   <i name="EREF">      0.00000000</i>
   <separator name="electronic smearing" >
    <i type="int" name="ISMEAR">     1</i>
    <i name="SIGMA">      0.20000000</i>
    <i name="KSPACING">      0.50000000</i>
    <i type="logical" name="KGAMMA"> T  </i>
   </separator>
   <separator name="electronic projectors" >
    <i type="logical" name="LREAL"> F  </i>
    <v name="ROPT">      0.00000000      0.00000000</v>
    <i type="int" name="LMAXPAW">  -100</i>
    <i type="int" name="LMAXMIX">     2</i>
    <i type="logical" name="NLSPLINE"> F  </i>
   </separator>
   <separator name="electronic startup" >
    <i type="int" name="ISTART">     0</i>
    <i type="int" name="ICHARG">     2</i>
    <i type="int" name="INIWAV">     1</i>
   </separator>
   <separator name="electronic spin" >
    <i type="int" name="ISPIN">     1</i>
    <i type="logical" name="LNONCOLLINEAR"> F  </i>
    <v name="MAGMOM">      1.00000000      1.00000000      1.00000000      1.00000000      1.00000000</v>
    <i name="NUPDOWN">     -1.00000000</i>
    <i type="logical" name="LSORBIT"> F  </i>
    <v name="SAXIS">      0.00000000      0.00000000      1.00000000</v>
    <i type="logical" name="LSPIRAL"> F  </i>
    <v name="QSPIRAL">      0.00000000      0.00000000      0.00000000</v>
    <i type="logical" name="LZEROZ"> F  </i>
   </separator>
   <separator name="electronic exchange-correlation" >
    <i type="logical" name="LASPH"> F  </i>
    <i type="logical" name="LMETAGGA"> F  </i>
   </separator>
   <separator name="electronic convergence" >
    <i type="int" name="NELM">    60</i>
    <i type="int" name="NELMDL">    -5</i>
    <i type="int" name="NELMIN">     2</i>
    <i name="ENINI">    400.00000000</i>
    <separator name="electronic convergence detail" >
     <i type="logical" name="LDIAG"> T  </i>
     <i type="logical" name="LSUBROT"> T  </i>
     <i name="WEIMIN">      0.00000000</i>
     <i name="EBREAK">      0.00000313</i>
     <i name="DEPER">      0.30000000</i>
     <i type="int" name="NRMM">     4</i>
     <i name="TIME">      0.40000000</i>
    </separator>
   </separator>
   <separator name="electronic mixer" >
    <i name="AMIX">      0.40000000</i>
    <i name="BMIX">      1.00000000</i>
    <i name="AMIN">      0.10000000</i>
    <i name="AMIX_MAG">      1.60000000</i>
    <i name="BMIX_MAG">      1.00000000</i>
    <separator name="electronic mixer details" >
     <i type="int" name="IMIX">     4</i>
     <i type="int" name="MAXMIX">   -45</i>
     <i name="WC">    100.00000000</i>
     <i type="int" name="INIMIX">     1</i>
     <i type="int" name="MIXPRE">     1</i>
     <i type="int" name="MREMOVE">     5</i>
    </separator>
   </separator>
   <separator name="electronic dipolcorrection" >
    <i type="logical" name="LDIPOL"> F  </i>
    <i type="logical" name="LMONO"> F  </i>
    <i type="int" name="IDIPOL">     0</i>
    <i name="EPSILON">      1.00000000</i>
    <v name="DIPOL">   -100.00000000   -100.00000000   -100.00000000</v>
    <i name="EFIELD">      0.00000000</i>
   </separator>
  </separator>
  <separator name="grids" >
   <i type="int" name="NGX">    40</i>
   <i type="int" name="NGY">    40</i>
   <i type="int" name="NGZ">    40</i>
   <i type="int" name="NGXF">    80</i>
   <i type="int" name="NGYF">    80</i>
   <i type="int" name="NGZF">    80</i>
   <i type="logical" name="ADDGRID"> F  </i>
  </separator>
  <separator name="ionic" >
   <i type="int" name="NSW">     0</i>
   <i type="int" name="IBRION">    -1</i>
   <i type="int" name="ISIF">     2</i>
   <i name="PSTRESS">      0.00000000</i>
   <i name="EDIFFG">      0.00100000</i>
   <i type="int" name="NFREE">     0</i>
   <i name="POTIM">      0.50000000</i>
   <i name="SMASS">     -3.00000000</i>
   <i name="SCALEE">      1.00000000</i>
  </separator>
  <separator name="ionic md" >
   <i name="TEBEG">      0.00010000</i>
   <i name="TEEND">      0.00010000</i>
   <i type="int" name="NBLOCK">     1</i>
   <i type="int" name="KBLOCK">     1</i>
   <i type="int" name="NPACO">   256</i>
   <i name="APACO">     16.00000000</i>
  </separator>
  <separator name="symmetry" >
   <i type="int" name="ISYM">     2</i>
   <i name="SYMPREC">      0.00001000</i>
  </separator>
  <separator name="dos" >
   <i type="logical" name="LORBIT"> F  </i>
   <v name="RWIGS">     -1.00000000     -1.00000000</v>
   <i type="int" name="NEDOS">   301</i>
   <i name="EMIN">     10.00000000</i>
   <i name="EMAX">    -10.00000000</i>
   <i name="EFERMI">      0.00000000</i>
  </separator>
  <separator name="writing" >
   <i type="int" name="NWRITE">     2</i>
   <i type="logical" name="LWAVE"> T  </i>
   <i type="logical" name="LCHARG"> T  </i>
   <i type="logical" name="LPARD"> F  </i>
   <i type="logical" name="LVTOT"> F  </i>
   <i type="logical" name="LVHAR"> F  </i>
   <i type="logical" name="LELF"> F  </i>
   <i type="logical" name="LOPTICS"> F  </i>
   <v name="STM">      0.00000000      0.00000000      0.00000000      0.00000000      0.00000000      0.00000000      0.00000000</v>
  </separator>
  <separator name="performance" >
   <i type="int" name="NPAR">     1</i>
   <i type="int" name="NSIM">     4</i>
   <i type="int" name="NBLK">    -1</i>
   <i type="logical" name="LPLANE"> T  </i>
   <i type="logical" name="LSCALAPACK"> F  </i>
   <i type="logical" name="LSCAAWARE"> F  </i>
   <i type="logical" name="LSCALU"> F  </i>
   <i type="logical" name="LASYNC"> F  </i>
   <i type="logical" name="LORBITALREAL"> F  </i>
  </separator>
  <separator name="miscellaneous" >
   <i type="int" name="IDIOT">     3</i>
   <i type="logical" name="LMUSIC"> F  </i>
   <v name="POMASS">      1.00000000     12.01100000</v>
   <v name="DARWINR">      0.00000000      0.00000000</v>
   <v name="DARWINV">      1.00000000      1.00000000</v>
   <i type="logical" name="LCORR"> T  </i>
  </separator>
  <i type="logical" name="GGA_COMPAT"> T  </i>
  <i type="logical" name="LBERRY"> F  </i>
  <i type="int" name="ICORELEVEL">     0</i>
  <i type="logical" name="LDAU"> F  </i>
  <i type="int" name="I_CONSTRAINED_M">     0</i>
  <separator name="electronic exchange-correlation" >
   <i type="string" name="GGA">--</i>
   <i type="int" name="VOSKOWN">     0</i>
   <i type="logical" name="LHFCALC"> F  </i>
   <i type="string" name="PRECFOCK"></i>
   <i type="logical" name="LHFONE"> F  </i>
   <i type="logical" name="LRHFCALC"> F  </i>
   <i type="logical" name="LTHOMAS"> F  </i>
   <i type="logical" name="LMODELHF"> F  </i>
   <i name="ENCUT4O">     -1.00000000</i>
   <i type="int" name="EXXOEP">     0</i>
   <i type="int" name="FOURORBIT">     0</i>
   <i name="AEXX">      0.00000000</i>
   <i name="HFALPHA">      0.00000000</i>
   <i name="ALDAX">      1.00000000</i>
   <i name="AGGAX">      1.00000000</i>
   <i name="ALDAC">      1.00000000</i>
   <i name="AGGAC">      1.00000000</i>
   <i type="int" name="NKREDX">     1</i>
   <i type="int" name="NKREDY">     1</i>
   <i type="int" name="NKREDZ">     1</i>
   <i type="logical" name="SHIFTRED"> F  </i>
   <i type="logical" name="ODDONLY"> F  </i>
   <i type="logical" name="EVENONLY"> F  </i>
   <i type="int" name="LMAXFOCK">     0</i>
   <i type="int" name="NMAXFOCKAE">     0</i>
   <i type="logical" name="LFOCKAEDFT"> F  </i>
   <i name="HFSCREEN">      0.00000000</i>
   <i name="HFSCREENC">      0.00000000</i>
  </separator>
  <separator name="vdW DFT" >
   <i type="logical" name="LUSE_VDW"> F  </i>
   <i name="Zab_VDW">     -0.84910000</i>
   <i name="PARAM1">      0.12340000</i>
   <i name="PARAM2">      1.00000000</i>
   <i name="PARAM3">      0.00000000</i>
  </separator>
  <separator name="model GW" >
   <i type="int" name="MODEL_GW">     0</i>
   <i name="MODEL_EPS0">     61.44000000</i>
   <i name="MODEL_ALPHA">      1.00000000</i>
  </separator>
  <separator name="linear response parameters" >
   <i type="logical" name="LEPSILON"> F  </i>
   <i type="logical" name="LRPA"> F  </i>
   <i type="logical" name="LNABLA"> F  </i>
   <i type="logical" name="LVEL"> F  </i>
   <i type="int" name="KINTER">     0</i>
   <i name="CSHIFT">      0.10000000</i>
   <i name="OMEGAMAX">     -1.00000000</i>
  </separator>
  <separator name="orbital magnetization" >
   <i type="logical" name="NUCIND"> F  </i>
   <v name="MAGPOS">      0.00000000      0.00000000      0.00000000</v>
   <i type="logical" name="LNICSALL"> T  </i>
   <i type="logical" name="ORBITALMAG"> F  </i>
   <i type="logical" name="LMAGBLOCH"> F  </i>
   <i type="logical" name="LCHIMAG"> F  </i>
   <i type="logical" name="LGAUGE"> T  </i>
   <i type="int" name="MAGATOM">     0</i>
   <v name="MAGDIPOL">      0.00000000      0.00000000      0.00000000</v>
   <v name="AVECCONST">      0.00000000      0.00000000      0.00000000</v>
  </separator>
  <separator name="response functions" >
   <i type="logical" name="LADDER"> F  </i>
   <i type="logical" name="LHARTREE"> T  </i>
   <i type="int" name="IBSE">     0</i>
   <i type="logical" name="LTCTE"> F  </i>
   <i type="logical" name="LTETE"> F  </i>
   <i type="logical" name="LFXCEPS"> F  </i>
   <i type="logical" name="L2ORDER"> F  </i>
   <i type="logical" name="LUSEW"> F  </i>
   <i name="ENCUTGW">     -2.00000000</i>
   <i name="ENCUTGWSOFT">     -2.00000000</i>
   <i name="ENCUTLF">     -1.00000000</i>
   <i type="int" name="LMAXMP2">    -1</i>
   <i name="SCISSOR">      0.00000000</i>
   <i type="int" name="NOMEGA">     0</i>
   <i type="int" name="NOMEGAR">     0</i>
   <i type="int" name="NBANDSGW">    -1</i>
   <i type="int" name="NBANDSO">    -1</i>
   <i type="int" name="NBANDSV">    -1</i>
   <i name="OPTEMAX">      0.00000000</i>
   <i type="int" name="NELM">     1</i>
   <i type="int" name="DIM">     3</i>
   <i type="int" name="ANTIRES">     0</i>
   <i name="OMEGAMAX">    -30.00000000</i>
   <i name="OMEGATL">   -200.00000000</i>
   <i type="int" name="OMEGAGRID">     0</i>
   <i name="CSHIFT">     -0.10000000</i>
   <i type="logical" name="SELFENERGY"> F  </i>
   <i type="logical" name="LSPECTRAL"> F  </i>
   <i type="logical" name="ODDONLYGW"> F  </i>
   <i type="logical" name="EVENONLYGW"> F  </i>
   <i type="int" name="NKREDLFX">     1</i>
   <i type="int" name="NKREDLFY">     1</i>
   <i type="int" name="NKREDLFZ">     1</i>
   <i type="int" name="MAXMEM">  1800</i>
   <i type="int" name="TELESCOPE">     0</i>
  </separator>
 </parameters>
 <atominfo>
  <atoms>       5 </atoms>
  <types>       2 </types>
  <array name="atoms" >
   <dimension dim="1">ion</dimension>
   <field type="string">element</field>
   <field type="int">atomtype</field>
   <set>
    <rc><c>H </c><c>   1</c></rc>
    <rc><c>H </c><c>   1</c></rc>
    <rc><c>H </c><c>   1</c></rc>
    <rc><c>H </c><c>   1</c></rc>
    <rc><c>C </c><c>   2</c></rc>
   </set>
  </array>
  <array name="atomtypes" >
   <dimension dim="1">type</dimension>
   <field type="int">atomspertype</field>
   <field type="string">element</field>
   <field>mass</field>
   <field>valence</field>
   <field type="string">pseudopotential</field>
   <set>
    <rc><c>   4</c><c>H </c><c>      1.00000000</c><c>      1.00000000</c><c> PAW_PBE H 15Jun2001                    </c></rc>
    <rc><c>   1</c><c>C </c><c>     12.01100000</c><c>      4.00000000</c><c> PAW_PBE C 08Apr2002                    </c></rc>
   </set>
  </array>
 </atominfo>
 <structure name="initialpos" >
  <crystal>
   <varray name="basis" >
    <v>       8.00000000       0.00000000       0.00000000 </v>
    <v>       0.00000000       8.00000000       0.00000000 </v>
    <v>       0.00000000       0.00000000       8.00000000 </v>
   </varray>
   <i name="volume">    512.00000000 </i>
   <varray name="rec_basis" >
    <v>       0.12500000       0.00000000       0.00000000 </v>
    <v>       0.00000000       0.12500000       0.00000000 </v>
    <v>       0.00000000       0.00000000       0.12500000 </v>
   </varray>
  </crystal>
  <varray name="positions" >
   <v>       0.57863975       0.57863975       0.57863975 </v>
   <v>       0.42136025       0.42136025       0.57863975 </v>
   <v>       0.57863975       0.42136025       0.42136025 </v>
   <v>       0.42136025       0.57863975       0.42136025 </v>
   <v>       0.50000000       0.50000000       0.50000000 </v>
  </varray>
 </structure>
 <calculation>
  <scstep>
   <time name="dav">    0.28    0.28</time>
   <time name="total">    1.10    1.10</time>
   <energy>
    <i name="alphaZ">      0.47054448 </i>
    <i name="ewald">     98.76290623 </i>
    <i name="hartreedc">   -215.08095114 </i>
    <i name="XCdc">     22.64688976 </i>
    <i name="pawpsdc">     40.95674594 </i>
    <i name="pawaedc">    -42.14325651 </i>
    <i name="eentropy">      0.01263659 </i>
    <i name="bandstr">    -53.15888151 </i>
    <i name="atom">    197.04175453 </i>
    <i name="e_fr_energy">     49.50838836 </i>
    <i name="e_wo_entrp">     49.49575178 </i>
    <i name="e_0_energy">     49.50417617 </i>
   </energy>
  </scstep>
  <scstep>
   <time name="dav">    0.40    0.40</time>
   <time name="total">    0.40    0.47</time>
   <energy>
    <i name="e_fr_energy">    -10.03535762 </i>
    <i name="e_wo_entrp">    -10.04695343 </i>
    <i name="e_0_energy">    -10.03922289 </i>
   </energy>
  </scstep>
  <scstep>
   <time name="dav">    0.28    0.28</time>
   <time name="total">    0.28    0.29</time>
   <energy>
    <i name="e_fr_energy">    -26.48713794 </i>
    <i name="e_wo_entrp">    -26.50201749 </i>
    <i name="e_0_energy">    -26.49209779 </i>
   </energy>
  </scstep>
  <scstep>
   <time name="dav">    0.47    0.47</time>
   <time name="total">    0.48    0.49</time>
   <energy>
    <i name="e_fr_energy">    -27.62828075 </i>
    <i name="e_wo_entrp">    -27.66306829 </i>
    <i name="e_0_energy">    -27.63987659 </i>
   </energy>
  </scstep>
  <scstep>
   <time name="dav">    0.47    0.47</time>
   <time name="total">    0.58    0.63</time>
   <energy>
    <i name="e_fr_energy">    -27.62923404 </i>
    <i name="e_wo_entrp">    -27.66402147 </i>
    <i name="e_0_energy">    -27.64082985 </i>
   </energy>
  </scstep>
  <scstep>
   <time name="dav">    0.37    0.37</time>
   <time name="total">    1.27    1.28</time>
   <energy>
    <i name="e_fr_energy">    -24.64923392 </i>
    <i name="e_wo_entrp">    -24.68402135 </i>
    <i name="e_0_energy">    -24.66082973 </i>
   </energy>
  </scstep>
  <scstep>
   <time name="dav">    0.46    0.47</time>
   <time name="total">    1.37    1.38</time>
   <energy>
    <i name="e_fr_energy">    -24.14334850 </i>
    <i name="e_wo_entrp">    -24.17813594 </i>
    <i name="e_0_energy">    -24.15494431 </i>
   </energy>
  </scstep>
  <scstep>
   <time name="dav">    0.27    0.27</time>
   <time name="total">    1.17    1.23</time>
   <energy>
    <i name="e_fr_energy">    -23.97926621 </i>
    <i name="e_wo_entrp">    -24.01405364 </i>
    <i name="e_0_energy">    -23.99086202 </i>
   </energy>
  </scstep>
  <scstep>
   <time name="dav">    0.27    0.27</time>
   <time name="total">    1.17    1.18</time>
   <energy>
    <i name="e_fr_energy">    -23.97866823 </i>
    <i name="e_wo_entrp">    -24.01345566 </i>
    <i name="e_0_energy">    -23.99026404 </i>
   </energy>
  </scstep>
  <scstep>
   <time name="dav">    0.27    0.27</time>
   <time name="total">    1.16    1.23</time>
   <energy>
    <i name="e_fr_energy">    -23.97669792 </i>
    <i name="e_wo_entrp">    -24.01148535 </i>
    <i name="e_0_energy">    -23.98829373 </i>
   </energy>
  </scstep>
  <scstep>
   <time name="dav">    0.27    0.27</time>
   <time name="total">    1.13    1.16</time>
   <energy>
    <i name="e_fr_energy">    -23.98479510 </i>
    <i name="e_wo_entrp">    -24.01958253 </i>
    <i name="e_0_energy">    -23.99639091 </i>
   </energy>
  </scstep>
  <scstep>
   <time name="dav">    0.27    0.27</time>
   <time name="total">    1.13    1.15</time>
   <energy>
    <i name="e_fr_energy">    -23.98685934 </i>
    <i name="e_wo_entrp">    -24.02164677 </i>
    <i name="e_0_energy">    -23.99845515 </i>
   </energy>
  </scstep>
  <scstep>
   <time name="dav">    0.27    0.27</time>
   <time name="total">    1.12    1.14</time>
   <energy>
    <i name="e_fr_energy">    -23.98810978 </i>
    <i name="e_wo_entrp">    -24.02289721 </i>
    <i name="e_0_energy">    -23.99970559 </i>
   </energy>
  </scstep>
  <scstep>
   <time name="dav">    0.27    0.27</time>
   <time name="total">    1.01    1.02</time>
   <energy>
    <i name="alphaZ">      0.47054448 </i>
    <i name="ewald">     98.76290623 </i>
    <i name="hartreedc">   -255.60883230 </i>
    <i name="XCdc">     25.43617818 </i>
    <i name="pawpsdc">     91.22660140 </i>
    <i name="pawaedc">    -92.63173336 </i>
    <i name="eentropy">      0.03478743 </i>
    <i name="bandstr">    -88.72035431 </i>
    <i name="atom">    197.04175453 </i>
    <i name="e_fr_energy">    -23.98814771 </i>
    <i name="e_wo_entrp">    -24.02293514 </i>
    <i name="e_0_energy">    -23.99974352 </i>
   </energy>
  </scstep>
  <parameters_embedded>
   <separator name="dft+d2" >
    <i type="logical" name="LVDW"> F  </i>
   </separator>
  </parameters_embedded>
  <structure>
   <crystal>
    <varray name="basis" >
     <v>       8.00000000       0.00000000       0.00000000 </v>
     <v>       0.00000000       8.00000000       0.00000000 </v>
     <v>       0.00000000       0.00000000       8.00000000 </v>
    </varray>
    <i name="volume">    512.00000000 </i>
    <varray name="rec_basis" >
     <v>       0.12500000       0.00000000       0.00000000 </v>
     <v>       0.00000000       0.12500000       0.00000000 </v>
     <v>       0.00000000       0.00000000       0.12500000 </v>
    </varray>
   </crystal>
   <varray name="positions" >
    <v>       0.57863975       0.57863975       0.57863975 </v>
    <v>       0.42136025       0.42136025       0.57863975 </v>
    <v>       0.57863975       0.42136025       0.42136025 </v>
    <v>       0.42136025       0.57863975       0.42136025 </v>
    <v>       0.50000000       0.50000000       0.50000000 </v>
   </varray>
  </structure>
  <varray name="forces" >
   <v>       0.13819616       0.13819616       0.13819616 </v>
   <v>      -0.13819616      -0.13819616       0.13819616 </v>
   <v>       0.13819616      -0.13819616      -0.13819616 </v>
   <v>      -0.13819616       0.13819616      -0.13819616 </v>
   <v>       0.00000000       0.00000000       0.00000000 </v>
  </varray>
  <varray name="stress" >
   <v>      -0.06750155       0.00000000       0.00000000 </v>
   <v>       0.00000000      -0.06750155       0.00000000 </v>
   <v>       0.00000000       0.00000000      -0.06750155 </v>
  </varray>
  <energy>
   <i name="e_fr_energy">    -23.98814771 </i>
   <i name="e_wo_entrp">    -23.99974352 </i>
   <i name="e_0_energy">      0.03478743 </i>
  </energy>
  <time name="totalsc">   15.80   16.65</time>
  <eigenvalues>
   <array>
    <dimension dim="1">band</dimension>
    <dimension dim="2">kpoint</dimension>
    <dimension dim="3">spin</dimension>
    <field>eigene</field>
    <field>occ</field>
    <set>
     <set comment="spin 1">
      <set comment="kpoint 1">
       <r>  -16.8072    1.0000 </r>
       <r>   -9.1843    1.0000 </r>
       <r>   -9.1843    1.0000 </r>
       <r>   -9.1843    1.0000 </r>
       <r>   -0.6094    0.0000 </r>
       <r>    1.7317    0.0000 </r>
       <r>    1.7317    0.0000 </r>
       <r>    1.7317    0.0000 </r>
      </set>
     </set>
    </set>
   </array>
  </eigenvalues>
  <separator name="orbital magnetization" >
   <v name="MAGDIPOLOUT">      0.00000000      0.00000000      0.00000000</v>
  </separator>
  <dos>
   <i name="efermi">     -9.01596353 </i>
   <total>
    <array>
     <dimension dim="1">gridpoints</dimension>
     <dimension dim="2">spin</dimension>
     <field>energy</field>
     <field>total</field>
     <field>integrated</field>
     <set>
      <set comment="spin 1">
       <r>   -18.8072     0.0000     0.0000 </r>
       <r>   -18.7320     0.0000     0.0000 </r>
       <r>   -18.6569     0.0000     0.0000 </r>
       <r>   -18.5818     0.0000     0.0000 </r>
       <r>   -18.5066     0.0000     0.0000 </r>
       <r>   -18.4315     0.0000     0.0000 </r>
       <r>   -18.3564     0.0000     0.0000 </r>
       <r>   -18.2813     0.0000     0.0000 </r>
       <r>   -18.2061     0.0000     0.0000 </r>
       <r>   -18.1310     0.0000     0.0000 </r>
       <r>   -18.0559     0.0000     0.0000 </r>
       <r>   -17.9807     0.0000     0.0000 </r>
       <r>   -17.9056     0.0000     0.0000 </r>
       <r>   -17.8305     0.0000     0.0000 </r>
       <r>   -17.7553     0.0000     0.0000 </r>
       <r>   -17.6802     0.0000     0.0000 </r>
       <r>   -17.6051     0.0000     0.0000 </r>
       <r>   -17.5300    -0.0001     0.0000 </r>
       <r>   -17.4548    -0.0006     0.0000 </r>
       <r>   -17.3797    -0.0046    -0.0004 </r>
       <r>   -17.3046    -0.0274    -0.0025 </r>
       <r>   -17.2294    -0.1134    -0.0110 </r>
       <r>   -17.1543    -0.3069    -0.0340 </r>
       <r>   -17.0792    -0.4288    -0.0663 </r>
       <r>   -17.0040     0.2579    -0.0469 </r>
       <r>   -16.9289     2.6490     0.1521 </r>
       <r>   -16.8538     6.1875     0.6170 </r>
       <r>   -16.7787     8.2719     1.2385 </r>
       <r>   -16.7035     6.9390     1.7598 </r>
       <r>   -16.6284     3.4717     2.0206 </r>
       <r>   -16.5533     0.6619     2.0703 </r>
       <r>   -16.4781    -0.3773     2.0420 </r>
       <r>   -16.4030    -0.3600     2.0149 </r>
       <r>   -16.3279    -0.1506     2.0036 </r>
       <r>   -16.2528    -0.0400     2.0006 </r>
       <r>   -16.1776    -0.0073     2.0001 </r>
       <r>   -16.1025    -0.0010     2.0000 </r>
       <r>   -16.0274    -0.0001     2.0000 </r>
       <r>   -15.9522     0.0000     2.0000 </r>
       <r>   -15.8771     0.0000     2.0000 </r>
       <r>   -15.8020     0.0000     2.0000 </r>
       <r>   -15.7268     0.0000     2.0000 </r>
       <r>   -15.6517     0.0000     2.0000 </r>
       <r>   -15.5766     0.0000     2.0000 </r>
       <r>   -15.5015     0.0000     2.0000 </r>
       <r>   -15.4263     0.0000     2.0000 </r>
       <r>   -15.3512     0.0000     2.0000 </r>
       <r>   -15.2761     0.0000     2.0000 </r>
       <r>   -15.2009     0.0000     2.0000 </r>
       <r>   -15.1258     0.0000     2.0000 </r>
       <r>   -15.0507     0.0000     2.0000 </r>
       <r>   -14.9756     0.0000     2.0000 </r>
       <r>   -14.9004     0.0000     2.0000 </r>
       <r>   -14.8253     0.0000     2.0000 </r>
       <r>   -14.7502     0.0000     2.0000 </r>
       <r>   -14.6750     0.0000     2.0000 </r>
       <r>   -14.5999     0.0000     2.0000 </r>
       <r>   -14.5248     0.0000     2.0000 </r>
       <r>   -14.4496     0.0000     2.0000 </r>
       <r>   -14.3745     0.0000     2.0000 </r>
       <r>   -14.2994     0.0000     2.0000 </r>
       <r>   -14.2243     0.0000     2.0000 </r>
       <r>   -14.1491     0.0000     2.0000 </r>
       <r>   -14.0740     0.0000     2.0000 </r>
       <r>   -13.9989     0.0000     2.0000 </r>
       <r>   -13.9237     0.0000     2.0000 </r>
       <r>   -13.8486     0.0000     2.0000 </r>
       <r>   -13.7735     0.0000     2.0000 </r>
       <r>   -13.6984     0.0000     2.0000 </r>
       <r>   -13.6232     0.0000     2.0000 </r>
       <r>   -13.5481     0.0000     2.0000 </r>
       <r>   -13.4730     0.0000     2.0000 </r>
       <r>   -13.3978     0.0000     2.0000 </r>
       <r>   -13.3227     0.0000     2.0000 </r>
       <r>   -13.2476     0.0000     2.0000 </r>
       <r>   -13.1724     0.0000     2.0000 </r>
       <r>   -13.0973     0.0000     2.0000 </r>
       <r>   -13.0222     0.0000     2.0000 </r>
       <r>   -12.9471     0.0000     2.0000 </r>
       <r>   -12.8719     0.0000     2.0000 </r>
       <r>   -12.7968     0.0000     2.0000 </r>
       <r>   -12.7217     0.0000     2.0000 </r>
       <r>   -12.6465     0.0000     2.0000 </r>
       <r>   -12.5714     0.0000     2.0000 </r>
       <r>   -12.4963     0.0000     2.0000 </r>
       <r>   -12.4212     0.0000     2.0000 </r>
       <r>   -12.3460     0.0000     2.0000 </r>
       <r>   -12.2709     0.0000     2.0000 </r>
       <r>   -12.1958     0.0000     2.0000 </r>
       <r>   -12.1206     0.0000     2.0000 </r>
       <r>   -12.0455     0.0000     2.0000 </r>
       <r>   -11.9704     0.0000     2.0000 </r>
       <r>   -11.8952     0.0000     2.0000 </r>
       <r>   -11.8201     0.0000     2.0000 </r>
       <r>   -11.7450     0.0000     2.0000 </r>
       <r>   -11.6699     0.0000     2.0000 </r>
       <r>   -11.5947     0.0000     2.0000 </r>
       <r>   -11.5196     0.0000     2.0000 </r>
       <r>   -11.4445     0.0000     2.0000 </r>
       <r>   -11.3693     0.0000     2.0000 </r>
       <r>   -11.2942     0.0000     2.0000 </r>
       <r>   -11.2191     0.0000     2.0000 </r>
       <r>   -11.1440     0.0000     2.0000 </r>
       <r>   -11.0688     0.0000     2.0000 </r>
       <r>   -10.9937     0.0000     2.0000 </r>
       <r>   -10.9186     0.0000     2.0000 </r>
       <r>   -10.8434     0.0000     2.0000 </r>
       <r>   -10.7683     0.0000     2.0000 </r>
       <r>   -10.6932     0.0000     2.0000 </r>
       <r>   -10.6180     0.0000     2.0000 </r>
       <r>   -10.5429     0.0000     2.0000 </r>
       <r>   -10.4678     0.0000     2.0000 </r>
       <r>   -10.3927     0.0000     2.0000 </r>
       <r>   -10.3175     0.0000     2.0000 </r>
       <r>   -10.2424     0.0000     2.0000 </r>
       <r>   -10.1673     0.0000     2.0000 </r>
       <r>   -10.0921     0.0000     2.0000 </r>
       <r>   -10.0170     0.0000     2.0000 </r>
       <r>    -9.9419     0.0000     2.0000 </r>
       <r>    -9.8667    -0.0006     2.0000 </r>
       <r>    -9.7916    -0.0055     1.9995 </r>
       <r>    -9.7165    -0.0377     1.9967 </r>
       <r>    -9.6414    -0.1850     1.9828 </r>
       <r>    -9.5662    -0.6172     1.9364 </r>
       <r>    -9.4911    -1.2402     1.8433 </r>
       <r>    -9.4160    -0.6859     1.7917 </r>
       <r>    -9.3408     3.9350     2.0874 </r>
       <r>    -9.2657    13.6311     3.1115 </r>
       <r>    -9.1906    23.0279     4.8415 </r>
       <r>    -9.1155    23.9270     6.6392 </r>
       <r>    -9.0403    15.4526     7.8001 </r>
       <r>    -8.9652     5.2498     8.1945 </r>
       <r>    -8.8901    -0.2806     8.1734 </r>
       <r>    -8.8149    -1.2951     8.0761 </r>
       <r>    -8.7398    -0.7220     8.0219 </r>
       <r>    -8.6647    -0.2325     8.0044 </r>
       <r>    -8.5895    -0.0503     8.0006 </r>
       <r>    -8.5144    -0.0077     8.0001 </r>
       <r>    -8.4393    -0.0009     8.0000 </r>
       <r>    -8.3642    -0.0001     8.0000 </r>
       <r>    -8.2890     0.0000     8.0000 </r>
       <r>    -8.2139     0.0000     8.0000 </r>
       <r>    -8.1388     0.0000     8.0000 </r>
       <r>    -8.0636     0.0000     8.0000 </r>
       <r>    -7.9885     0.0000     8.0000 </r>
       <r>    -7.9134     0.0000     8.0000 </r>
       <r>    -7.8383     0.0000     8.0000 </r>
       <r>    -7.7631     0.0000     8.0000 </r>
       <r>    -7.6880     0.0000     8.0000 </r>
       <r>    -7.6129     0.0000     8.0000 </r>
       <r>    -7.5377     0.0000     8.0000 </r>
       <r>    -7.4626     0.0000     8.0000 </r>
       <r>    -7.3875     0.0000     8.0000 </r>
       <r>    -7.3123     0.0000     8.0000 </r>
       <r>    -7.2372     0.0000     8.0000 </r>
       <r>    -7.1621     0.0000     8.0000 </r>
       <r>    -7.0870     0.0000     8.0000 </r>
       <r>    -7.0118     0.0000     8.0000 </r>
       <r>    -6.9367     0.0000     8.0000 </r>
       <r>    -6.8616     0.0000     8.0000 </r>
       <r>    -6.7864     0.0000     8.0000 </r>
       <r>    -6.7113     0.0000     8.0000 </r>
       <r>    -6.6362     0.0000     8.0000 </r>
       <r>    -6.5611     0.0000     8.0000 </r>
       <r>    -6.4859     0.0000     8.0000 </r>
       <r>    -6.4108     0.0000     8.0000 </r>
       <r>    -6.3357     0.0000     8.0000 </r>
       <r>    -6.2605     0.0000     8.0000 </r>
       <r>    -6.1854     0.0000     8.0000 </r>
       <r>    -6.1103     0.0000     8.0000 </r>
       <r>    -6.0351     0.0000     8.0000 </r>
       <r>    -5.9600     0.0000     8.0000 </r>
       <r>    -5.8849     0.0000     8.0000 </r>
       <r>    -5.8098     0.0000     8.0000 </r>
       <r>    -5.7346     0.0000     8.0000 </r>
       <r>    -5.6595     0.0000     8.0000 </r>
       <r>    -5.5844     0.0000     8.0000 </r>
       <r>    -5.5092     0.0000     8.0000 </r>
       <r>    -5.4341     0.0000     8.0000 </r>
       <r>    -5.3590     0.0000     8.0000 </r>
       <r>    -5.2839     0.0000     8.0000 </r>
       <r>    -5.2087     0.0000     8.0000 </r>
       <r>    -5.1336     0.0000     8.0000 </r>
       <r>    -5.0585     0.0000     8.0000 </r>
       <r>    -4.9833     0.0000     8.0000 </r>
       <r>    -4.9082     0.0000     8.0000 </r>
       <r>    -4.8331     0.0000     8.0000 </r>
       <r>    -4.7579     0.0000     8.0000 </r>
       <r>    -4.6828     0.0000     8.0000 </r>
       <r>    -4.6077     0.0000     8.0000 </r>
       <r>    -4.5326     0.0000     8.0000 </r>
       <r>    -4.4574     0.0000     8.0000 </r>
       <r>    -4.3823     0.0000     8.0000 </r>
       <r>    -4.3072     0.0000     8.0000 </r>
       <r>    -4.2320     0.0000     8.0000 </r>
       <r>    -4.1569     0.0000     8.0000 </r>
       <r>    -4.0818     0.0000     8.0000 </r>
       <r>    -4.0067     0.0000     8.0000 </r>
       <r>    -3.9315     0.0000     8.0000 </r>
       <r>    -3.8564     0.0000     8.0000 </r>
       <r>    -3.7813     0.0000     8.0000 </r>
       <r>    -3.7061     0.0000     8.0000 </r>
       <r>    -3.6310     0.0000     8.0000 </r>
       <r>    -3.5559     0.0000     8.0000 </r>
       <r>    -3.4807     0.0000     8.0000 </r>
       <r>    -3.4056     0.0000     8.0000 </r>
       <r>    -3.3305     0.0000     8.0000 </r>
       <r>    -3.2554     0.0000     8.0000 </r>
       <r>    -3.1802     0.0000     8.0000 </r>
       <r>    -3.1051     0.0000     8.0000 </r>
       <r>    -3.0300     0.0000     8.0000 </r>
       <r>    -2.9548     0.0000     8.0000 </r>
       <r>    -2.8797     0.0000     8.0000 </r>
       <r>    -2.8046     0.0000     8.0000 </r>
       <r>    -2.7294     0.0000     8.0000 </r>
       <r>    -2.6543     0.0000     8.0000 </r>
       <r>    -2.5792     0.0000     8.0000 </r>
       <r>    -2.5041     0.0000     8.0000 </r>
       <r>    -2.4289     0.0000     8.0000 </r>
       <r>    -2.3538     0.0000     8.0000 </r>
       <r>    -2.2787     0.0000     8.0000 </r>
       <r>    -2.2035     0.0000     8.0000 </r>
       <r>    -2.1284     0.0000     8.0000 </r>
       <r>    -2.0533     0.0000     8.0000 </r>
       <r>    -1.9782     0.0000     8.0000 </r>
       <r>    -1.9030     0.0000     8.0000 </r>
       <r>    -1.8279     0.0000     8.0000 </r>
       <r>    -1.7528     0.0000     8.0000 </r>
       <r>    -1.6776     0.0000     8.0000 </r>
       <r>    -1.6025     0.0000     8.0000 </r>
       <r>    -1.5274     0.0000     8.0000 </r>
       <r>    -1.4522     0.0000     8.0000 </r>
       <r>    -1.3771     0.0000     8.0000 </r>
       <r>    -1.3020    -0.0001     8.0000 </r>
       <r>    -1.2269    -0.0014     7.9999 </r>
       <r>    -1.1517    -0.0098     7.9991 </r>
       <r>    -1.0766    -0.0507     7.9953 </r>
       <r>    -1.0015    -0.1791     7.9819 </r>
       <r>    -0.9263    -0.3914     7.9525 </r>
       <r>    -0.8512    -0.3103     7.9292 </r>
       <r>    -0.7761     0.9918     8.0037 </r>
       <r>    -0.7010     4.0462     8.3077 </r>
       <r>    -0.6258     7.3668     8.8611 </r>
       <r>    -0.5507     8.1512     9.4735 </r>
       <r>    -0.4756     5.6382     9.8971 </r>
       <r>    -0.4004     2.1456    10.0583 </r>
       <r>    -0.3253     0.0493    10.0620 </r>
       <r>    -0.2502    -0.4371    10.0292 </r>
       <r>    -0.1750    -0.2708    10.0088 </r>
       <r>    -0.0999    -0.0927    10.0019 </r>
       <r>    -0.0248    -0.0211    10.0003 </r>
       <r>     0.0503    -0.0034    10.0000 </r>
       <r>     0.1255    -0.0004    10.0000 </r>
       <r>     0.2006     0.0000    10.0000 </r>
       <r>     0.2757     0.0000    10.0000 </r>
       <r>     0.3509     0.0000    10.0000 </r>
       <r>     0.4260     0.0000    10.0000 </r>
       <r>     0.5011     0.0000    10.0000 </r>
       <r>     0.5762     0.0000    10.0000 </r>
       <r>     0.6514     0.0000    10.0000 </r>
       <r>     0.7265     0.0000    10.0000 </r>
       <r>     0.8016     0.0000    10.0000 </r>
       <r>     0.8768     0.0000    10.0000 </r>
       <r>     0.9519     0.0000    10.0000 </r>
       <r>     1.0270    -0.0003    10.0000 </r>
       <r>     1.1022    -0.0029     9.9998 </r>
       <r>     1.1773    -0.0220     9.9981 </r>
       <r>     1.2524    -0.1199     9.9891 </r>
       <r>     1.3275    -0.4518     9.9552 </r>
       <r>     1.4027    -1.0802     9.8740 </r>
       <r>     1.4778    -1.1316     9.7890 </r>
       <r>     1.5529     1.9866     9.9382 </r>
       <r>     1.6281    10.4167    10.7208 </r>
       <r>     1.7032    20.8183    12.2849 </r>
       <r>     1.7783    24.8153    14.1493 </r>
       <r>     1.8534    18.5609    15.5437 </r>
       <r>     1.9286     7.9454    16.1407 </r>
       <r>     2.0037     0.7729    16.1987 </r>
       <r>     2.0788    -1.2865    16.1021 </r>
       <r>     2.1540    -0.9207    16.0329 </r>
       <r>     2.2291    -0.3402    16.0074 </r>
       <r>     2.3042    -0.0822    16.0012 </r>
       <r>     2.3794    -0.0139    16.0001 </r>
       <r>     2.4545    -0.0017    16.0000 </r>
       <r>     2.5296    -0.0001    16.0000 </r>
       <r>     2.6047     0.0000    16.0000 </r>
       <r>     2.6799     0.0000    16.0000 </r>
       <r>     2.7550     0.0000    16.0000 </r>
       <r>     2.8301     0.0000    16.0000 </r>
       <r>     2.9053     0.0000    16.0000 </r>
       <r>     2.9804     0.0000    16.0000 </r>
       <r>     3.0555     0.0000    16.0000 </r>
       <r>     3.1306     0.0000    16.0000 </r>
       <r>     3.2058     0.0000    16.0000 </r>
       <r>     3.2809     0.0000    16.0000 </r>
       <r>     3.3560     0.0000    16.0000 </r>
       <r>     3.4312     0.0000    16.0000 </r>
       <r>     3.5063     0.0000    16.0000 </r>
       <r>     3.5814     0.0000    16.0000 </r>
       <r>     3.6566     0.0000    16.0000 </r>
       <r>     3.7317     0.0000    16.0000 </r>
      </set>
     </set>
    </array>
   </total>
  </dos>
 </calculation>
 <structure name="finalpos" >
  <crystal>
   <varray name="basis" >
    <v>       8.00000000       0.00000000       0.00000000 </v>
    <v>       0.00000000       8.00000000       0.00000000 </v>
    <v>       0.00000000       0.00000000       8.00000000 </v>
   </varray>
   <i name="volume">    512.00000000 </i>
   <varray name="rec_basis" >
    <v>       0.12500000       0.00000000       0.00000000 </v>
    <v>       0.00000000       0.12500000       0.00000000 </v>
    <v>       0.00000000       0.00000000       0.12500000 </v>
   </varray>
  </crystal>
  <varray name="positions" >
   <v>       0.57863975       0.57863975       0.57863975 </v>
   <v>       0.42136025       0.42136025       0.57863975 </v>
   <v>       0.57863975       0.42136025       0.42136025 </v>
   <v>       0.42136025       0.57863975       0.42136025 </v>
   <v>       0.50000000       0.50000000       0.50000000 </v>
  </varray>
 </structure>
</modeling>
