unknown system                          
           1
     8.000000    0.000000    0.000000
     0.000000    8.000000    0.000000
     0.000000    0.000000    8.000000
   H    C 
   4   1
Direct configuration=     1
   0.57863975  0.57863975  0.57863975
   0.42136025  0.42136025  0.57863975
   0.57863975  0.42136025  0.42136025
   0.42136025  0.57863975  0.42136025
   0.50000000  0.50000000  0.50000000
