   5   5   0   0
  0.1024000E+03  0.8000000E-09  0.8000000E-09  0.8000000E-09  0.5000000E-15
  1.000000000000000E-004
  CAR 
 unknown system                          
      3.72166211    -18.75088144  301     -8.18863967      1.00000000
    -18.751  0.0000E+00  0.0000E+00
    -18.676  0.0000E+00  0.0000E+00
    -18.601  0.0000E+00  0.0000E+00
    -18.526  0.0000E+00  0.0000E+00
    -18.451  0.0000E+00  0.0000E+00
    -18.376  0.0000E+00  0.0000E+00
    -18.301  0.0000E+00  0.0000E+00
    -18.227  0.0000E+00  0.0000E+00
    -18.152  0.0000E+00  0.0000E+00
    -18.077  0.0000E+00  0.0000E+00
    -18.002  0.0000E+00  0.0000E+00
    -17.927  0.1482E-15  0.1110E-16
    -17.852  0.9041E-14  0.6883E-15
    -17.777  0.5220E-12  0.3979E-13
    -17.702  0.2266E-10  0.1737E-11
    -17.627  0.7456E-09  0.5759E-10
    -17.552  0.1861E-07  0.1451E-08
    -17.477  0.3522E-06  0.2784E-07
    -17.403  0.5060E-05  0.4069E-06
    -17.328  0.5517E-04  0.4539E-05
    -17.253  0.4567E-03  0.3875E-04
    -17.178  0.2871E-02  0.2538E-03
    -17.103  0.1371E-01  0.1281E-02
    -17.028  0.4974E-01  0.5006E-02
    -16.953  0.1371E+00  0.1528E-01
    -16.878  0.2874E+00  0.3681E-01
    -16.803  0.4579E+00  0.7111E-01
    -16.728  0.5546E+00  0.1127E+00
    -16.653  0.5108E+00  0.1509E+00
    -16.579  0.3576E+00  0.1777E+00
    -16.504  0.1903E+00  0.1920E+00
    -16.429  0.7700E-01  0.1977E+00
    -16.354  0.2368E-01  0.1995E+00
    -16.279  0.5532E-02  0.1999E+00
    -16.204  0.9819E-03  0.2000E+00
    -16.129  0.1324E-03  0.2000E+00
    -16.054  0.1355E-04  0.2000E+00
    -15.979  0.1053E-05  0.2000E+00
    -15.904  0.6209E-07  0.2000E+00
    -15.829  0.2778E-08  0.2000E+00
    -15.755  0.9424E-10  0.2000E+00
    -15.680  0.2425E-11  0.2000E+00
    -15.605  0.4743E-13  0.2000E+00
    -15.530  0.5928E-15  0.2000E+00
    -15.455  0.0000E+00  0.2000E+00
    -15.380  0.0000E+00  0.2000E+00
    -15.305  0.0000E+00  0.2000E+00
    -15.230  0.0000E+00  0.2000E+00
    -15.155  0.0000E+00  0.2000E+00
    -15.080  0.0000E+00  0.2000E+00
    -15.005  0.0000E+00  0.2000E+00
    -14.931  0.0000E+00  0.2000E+00
    -14.856  0.0000E+00  0.2000E+00
    -14.781  0.0000E+00  0.2000E+00
    -14.706  0.0000E+00  0.2000E+00
    -14.631  0.0000E+00  0.2000E+00
    -14.556  0.0000E+00  0.2000E+00
    -14.481  0.0000E+00  0.2000E+00
    -14.406  0.0000E+00  0.2000E+00
    -14.331  0.0000E+00  0.2000E+00
    -14.256  0.0000E+00  0.2000E+00
    -14.181  0.0000E+00  0.2000E+00
    -14.107  0.0000E+00  0.2000E+00
    -14.032  0.0000E+00  0.2000E+00
    -13.957  0.0000E+00  0.2000E+00
    -13.882  0.0000E+00  0.2000E+00
    -13.807  0.0000E+00  0.2000E+00
    -13.732  0.0000E+00  0.2000E+00
    -13.657  0.0000E+00  0.2000E+00
    -13.582  0.0000E+00  0.2000E+00
    -13.507  0.0000E+00  0.2000E+00
    -13.432  0.0000E+00  0.2000E+00
    -13.357  0.0000E+00  0.2000E+00
    -13.283  0.0000E+00  0.2000E+00
    -13.208  0.0000E+00  0.2000E+00
    -13.133  0.0000E+00  0.2000E+00
    -13.058  0.0000E+00  0.2000E+00
    -12.983  0.0000E+00  0.2000E+00
    -12.908  0.0000E+00  0.2000E+00
    -12.833  0.0000E+00  0.2000E+00
    -12.758  0.0000E+00  0.2000E+00
    -12.683  0.0000E+00  0.2000E+00
    -12.608  0.0000E+00  0.2000E+00
    -12.533  0.0000E+00  0.2000E+00
    -12.459  0.0000E+00  0.2000E+00
    -12.384  0.0000E+00  0.2000E+00
    -12.309  0.0000E+00  0.2000E+00
    -12.234  0.0000E+00  0.2000E+00
    -12.159  0.0000E+00  0.2000E+00
    -12.084  0.0000E+00  0.2000E+00
    -12.009  0.0000E+00  0.2000E+00
    -11.934  0.0000E+00  0.2000E+00
    -11.859  0.0000E+00  0.2000E+00
    -11.784  0.0000E+00  0.2000E+00
    -11.709  0.0000E+00  0.2000E+00
    -11.635  0.0000E+00  0.2000E+00
    -11.560  0.0000E+00  0.2000E+00
    -11.485  0.0000E+00  0.2000E+00
    -11.410  0.0000E+00  0.2000E+00
    -11.335  0.0000E+00  0.2000E+00
    -11.260  0.0000E+00  0.2000E+00
    -11.185  0.0000E+00  0.2000E+00
    -11.110  0.0000E+00  0.2000E+00
    -11.035  0.0000E+00  0.2000E+00
    -10.960  0.0000E+00  0.2000E+00
    -10.885  0.0000E+00  0.2000E+00
    -10.811  0.0000E+00  0.2000E+00
    -10.736  0.0000E+00  0.2000E+00
    -10.661  0.0000E+00  0.2000E+00
    -10.586  0.0000E+00  0.2000E+00
    -10.511  0.0000E+00  0.2000E+00
    -10.436  0.0000E+00  0.2000E+00
    -10.361  0.0000E+00  0.2000E+00
    -10.286  0.4891E-14  0.2000E+00
    -10.211  0.3139E-12  0.2000E+00
    -10.136  0.1524E-10  0.2000E+00
    -10.061  0.5611E-09  0.2000E+00
     -9.987  0.1566E-07  0.2000E+00
     -9.912  0.3317E-06  0.2000E+00
     -9.837  0.5328E-05  0.2000E+00
     -9.762  0.6496E-04  0.2000E+00
     -9.687  0.6012E-03  0.2001E+00
     -9.612  0.4225E-02  0.2004E+00
     -9.537  0.2256E-01  0.2021E+00
     -9.462  0.9147E-01  0.2089E+00
     -9.387  0.2819E+00  0.2300E+00
     -9.312  0.6603E+00  0.2795E+00
     -9.238  0.1176E+01  0.3675E+00
     -9.163  0.1591E+01  0.4867E+00
     -9.088  0.1638E+01  0.6094E+00
     -9.013  0.1281E+01  0.7054E+00
     -8.938  0.7621E+00  0.7625E+00
     -8.863  0.3446E+00  0.7883E+00
     -8.788  0.1184E+00  0.7971E+00
     -8.713  0.3093E-01  0.7995E+00
     -8.638  0.6136E-02  0.7999E+00
     -8.563  0.9249E-03  0.8000E+00
     -8.488  0.1059E-03  0.8000E+00
     -8.414  0.9198E-05  0.8000E+00
     -8.339  0.6066E-06  0.8000E+00
     -8.264  0.3035E-07  0.8000E+00
     -8.189  0.1152E-08  0.8000E+00
     -8.114  0.3316E-10  0.8000E+00
     -8.039  0.7239E-12  0.8000E+00
     -7.964  0.1245E-13  0.8000E+00
     -7.889  0.0000E+00  0.8000E+00
     -7.814  0.0000E+00  0.8000E+00
     -7.739  0.0000E+00  0.8000E+00
     -7.664  0.0000E+00  0.8000E+00
     -7.590  0.0000E+00  0.8000E+00
     -7.515  0.0000E+00  0.8000E+00
     -7.440  0.0000E+00  0.8000E+00
     -7.365  0.0000E+00  0.8000E+00
     -7.290  0.0000E+00  0.8000E+00
     -7.215  0.0000E+00  0.8000E+00
     -7.140  0.0000E+00  0.8000E+00
     -7.065  0.0000E+00  0.8000E+00
     -6.990  0.0000E+00  0.8000E+00
     -6.915  0.0000E+00  0.8000E+00
     -6.840  0.0000E+00  0.8000E+00
     -6.766  0.0000E+00  0.8000E+00
     -6.691  0.0000E+00  0.8000E+00
     -6.616  0.0000E+00  0.8000E+00
     -6.541  0.0000E+00  0.8000E+00
     -6.466  0.0000E+00  0.8000E+00
     -6.391  0.0000E+00  0.8000E+00
     -6.316  0.0000E+00  0.8000E+00
     -6.241  0.0000E+00  0.8000E+00
     -6.166  0.0000E+00  0.8000E+00
     -6.091  0.0000E+00  0.8000E+00
     -6.016  0.0000E+00  0.8000E+00
     -5.942  0.0000E+00  0.8000E+00
     -5.867  0.0000E+00  0.8000E+00
     -5.792  0.0000E+00  0.8000E+00
     -5.717  0.0000E+00  0.8000E+00
     -5.642  0.0000E+00  0.8000E+00
     -5.567  0.0000E+00  0.8000E+00
     -5.492  0.0000E+00  0.8000E+00
     -5.417  0.0000E+00  0.8000E+00
     -5.342  0.0000E+00  0.8000E+00
     -5.267  0.0000E+00  0.8000E+00
     -5.192  0.0000E+00  0.8000E+00
     -5.118  0.0000E+00  0.8000E+00
     -5.043  0.0000E+00  0.8000E+00
     -4.968  0.0000E+00  0.8000E+00
     -4.893  0.0000E+00  0.8000E+00
     -4.818  0.0000E+00  0.8000E+00
     -4.743  0.0000E+00  0.8000E+00
     -4.668  0.0000E+00  0.8000E+00
     -4.593  0.0000E+00  0.8000E+00
     -4.518  0.0000E+00  0.8000E+00
     -4.443  0.0000E+00  0.8000E+00
     -4.368  0.0000E+00  0.8000E+00
     -4.294  0.0000E+00  0.8000E+00
     -4.219  0.0000E+00  0.8000E+00
     -4.144  0.0000E+00  0.8000E+00
     -4.069  0.0000E+00  0.8000E+00
     -3.994  0.0000E+00  0.8000E+00
     -3.919  0.0000E+00  0.8000E+00
     -3.844  0.0000E+00  0.8000E+00
     -3.769  0.0000E+00  0.8000E+00
     -3.694  0.0000E+00  0.8000E+00
     -3.619  0.0000E+00  0.8000E+00
     -3.544  0.0000E+00  0.8000E+00
     -3.470  0.0000E+00  0.8000E+00
     -3.395  0.0000E+00  0.8000E+00
     -3.320  0.0000E+00  0.8000E+00
     -3.245  0.0000E+00  0.8000E+00
     -3.170  0.0000E+00  0.8000E+00
     -3.095  0.0000E+00  0.8000E+00
     -3.020  0.0000E+00  0.8000E+00
     -2.945  0.0000E+00  0.8000E+00
     -2.870  0.0000E+00  0.8000E+00
     -2.795  0.0000E+00  0.8000E+00
     -2.720  0.0000E+00  0.8000E+00
     -2.646  0.0000E+00  0.8000E+00
     -2.571  0.0000E+00  0.8000E+00
     -2.496  0.0000E+00  0.8000E+00
     -2.421  0.0000E+00  0.8000E+00
     -2.346  0.0000E+00  0.8000E+00
     -2.271  0.0000E+00  0.8000E+00
     -2.196  0.0000E+00  0.8000E+00
     -2.121  0.0000E+00  0.8000E+00
     -2.046  0.0000E+00  0.8000E+00
     -1.971  0.0000E+00  0.8000E+00
     -1.896  0.0000E+00  0.8000E+00
     -1.822  0.0000E+00  0.8000E+00
     -1.747  0.3557E-14  0.8000E+00
     -1.672  0.2149E-12  0.8000E+00
     -1.597  0.9925E-11  0.8000E+00
     -1.522  0.3476E-09  0.8000E+00
     -1.447  0.9233E-08  0.8000E+00
     -1.372  0.1860E-06  0.8000E+00
     -1.297  0.2843E-05  0.8000E+00
     -1.222  0.3299E-04  0.8000E+00
     -1.147  0.2905E-03  0.8000E+00
     -1.072  0.1943E-02  0.8002E+00
     -0.998  0.9872E-02  0.8009E+00
     -0.923  0.3810E-01  0.8038E+00
     -0.848  0.1118E+00  0.8121E+00
     -0.773  0.2492E+00  0.8308E+00
     -0.698  0.4223E+00  0.8624E+00
     -0.623  0.5441E+00  0.9032E+00
     -0.548  0.5329E+00  0.9431E+00
     -0.473  0.3969E+00  0.9728E+00
     -0.398  0.2247E+00  0.9897E+00
     -0.323  0.9670E-01  0.9969E+00
     -0.248  0.3163E-01  0.9993E+00
     -0.174  0.7862E-02  0.9999E+00
     -0.099  0.1485E-02  0.1000E+01
     -0.024  0.2130E-03  0.1000E+01
      0.051  0.2320E-04  0.1000E+01
      0.126  0.1918E-05  0.1000E+01
      0.201  0.1204E-06  0.1000E+01
      0.276  0.5730E-08  0.1000E+01
      0.351  0.2069E-09  0.1000E+01
      0.426  0.5667E-11  0.1000E+01
      0.501  0.1177E-12  0.1000E+01
      0.576  0.4002E-14  0.1000E+01
      0.650  0.1418E-12  0.1000E+01
      0.725  0.7277E-11  0.1000E+01
      0.800  0.2828E-09  0.1000E+01
      0.875  0.8335E-08  0.1000E+01
      0.950  0.1863E-06  0.1000E+01
      1.025  0.3160E-05  0.1000E+01
      1.100  0.4066E-04  0.1000E+01
      1.175  0.3972E-03  0.1000E+01
      1.250  0.2946E-02  0.1000E+01
      1.325  0.1660E-01  0.1001E+01
      1.399  0.7104E-01  0.1007E+01
      1.474  0.2310E+00  0.1024E+01
      1.549  0.5710E+00  0.1067E+01
      1.624  0.1073E+01  0.1147E+01
      1.699  0.1532E+01  0.1262E+01
      1.774  0.1664E+01  0.1387E+01
      1.849  0.1374E+01  0.1490E+01
      1.924  0.8622E+00  0.1554E+01
      1.999  0.4114E+00  0.1585E+01
      2.074  0.1492E+00  0.1596E+01
      2.149  0.4112E-01  0.1599E+01
      2.223  0.8611E-02  0.1600E+01
      2.298  0.1370E-02  0.1600E+01
      2.373  0.1655E-03  0.1600E+01
      2.448  0.1518E-04  0.1600E+01
      2.523  0.1056E-05  0.1600E+01
      2.598  0.5580E-07  0.1600E+01
      2.673  0.2236E-08  0.1600E+01
      2.748  0.6795E-10  0.1600E+01
      2.823  0.1565E-11  0.1600E+01
      2.898  0.2757E-13  0.1600E+01
      2.973  0.0000E+00  0.1600E+01
      3.047  0.0000E+00  0.1600E+01
      3.122  0.0000E+00  0.1600E+01
      3.197  0.0000E+00  0.1600E+01
      3.272  0.0000E+00  0.1600E+01
      3.347  0.0000E+00  0.1600E+01
      3.422  0.0000E+00  0.1600E+01
      3.497  0.0000E+00  0.1600E+01
      3.572  0.0000E+00  0.1600E+01
      3.647  0.0000E+00  0.1600E+01
      3.722  0.0000E+00  0.1600E+01
