       N       E                     dE             d eps       ncg     rms          rms(c)
DAV:   1     0.498610902975E+02    0.49861E+02   -0.13774E+03    16   0.430E+02
DAV:   2    -0.172913903935E+02   -0.67152E+02   -0.67074E+02    32   0.826E+01
DAV:   3    -0.273119646401E+02   -0.10021E+02   -0.10021E+02    16   0.644E+01
DAV:   4    -0.276639327366E+02   -0.35197E+00   -0.35197E+00    32   0.139E+01
DAV:   5    -0.276640215087E+02   -0.88772E-04   -0.88773E-04    24   0.254E-01    0.858E+00
DAV:   6    -0.246840203421E+02    0.29800E+01   -0.90287E+00    24   0.171E+01    0.383E+00
DAV:   7    -0.241781613431E+02    0.50586E+00   -0.82752E-01    32   0.502E+00    0.194E+00
DAV:   8    -0.240140117411E+02    0.16415E+00   -0.19670E-01    16   0.306E+00    0.273E-01
DAV:   9    -0.240134561493E+02    0.55559E-03   -0.64028E-03    16   0.488E-01    0.162E-01
DAV:  10    -0.240114310175E+02    0.20251E-02   -0.15806E-03    16   0.283E-01    0.695E-02
DAV:  11    -0.240196297446E+02   -0.81987E-02   -0.21510E-03    16   0.286E-01    0.682E-02
DAV:  12    -0.240216550559E+02   -0.20253E-02   -0.62378E-04    16   0.174E-01    0.230E-02
DAV:  13    -0.240228973817E+02   -0.12423E-02   -0.17029E-04    16   0.815E-02    0.601E-03
DAV:  14    -0.240229361506E+02   -0.38769E-04   -0.21419E-06    16   0.106E-02
   1 F= -.24022936E+02 E0= -.24022936E+02  d E =-.240229E+02
       N       E                     dE             d eps       ncg     rms          rms(c)
DAV:   1    -0.240280794942E+02   -0.51821E-02   -0.26362E-01    16   0.453E+00    0.281E-01
DAV:   2    -0.240254189619E+02    0.26605E-02   -0.72491E-03    24   0.552E-01    0.107E-01
DAV:   3    -0.240251854044E+02    0.23356E-03   -0.32621E-03    24   0.325E-01    0.413E-02
DAV:   4    -0.240251850568E+02    0.34761E-06   -0.33525E-06    16   0.171E-02
   2 F= -.24025185E+02 E0= -.24025185E+02  d E =-.224891E-02
       N       E                     dE             d eps       ncg     rms          rms(c)
DAV:   1    -0.240271090104E+02   -0.19236E-02   -0.40678E-02    16   0.178E+00    0.131E-01
DAV:   2    -0.240264586967E+02    0.65031E-03   -0.18795E-03    24   0.240E-01    0.400E-02
DAV:   3    -0.240264241613E+02    0.34535E-04   -0.51184E-04    16   0.130E-01
   3 F= -.24026424E+02 E0= -.24026424E+02  d E =-.348801E-02
