<?xml version="1.0" encoding="ISO-8859-1"?>
<modeling>
 <generator>
  <i name="program" type="string">vasp </i>
  <i name="version" type="string">5.2.12  </i>
  <i name="subversion" type="string">11Nov11 complex                                                      parallel </i>
  <i name="platform" type="string">LinuxIFC </i>
  <i name="date" type="string">2012 10 30 </i>
  <i name="time" type="string">23:19:17 </i>
 </generator>
 <incar>
  <i type="string" name="PREC">normal</i>
  <i type="int" name="IBRION">     2</i>
  <i type="int" name="NSW">    10</i>
  <i name="ENCUT">    400.00000000</i>
  <i type="int" name="ISMEAR">     0</i>
 </incar>
 <kpoints>
  <generation param="Monkhorst-Pack">
   <v type="int" name="divisions">       1        1        1 </v>
   <v name="usershift">      0.00000000       0.00000000       0.00000000 </v>
   <v name="genvec1">      1.00000000       0.00000000       0.00000000 </v>
   <v name="genvec2">      0.00000000       1.00000000       0.00000000 </v>
   <v name="genvec3">      0.00000000       0.00000000       1.00000000 </v>
   <v name="shift">      0.00000000       0.00000000       0.00000000 </v>
  </generation>
  <varray name="kpointlist" >
   <v>       0.00000000       0.00000000       0.00000000 </v>
  </varray>
  <varray name="weights" >
   <v>       1.00000000 </v>
  </varray>
 </kpoints>
 <parameters>
  <separator name="general" >
   <i type="string" name="SYSTEM">unknown system</i>
   <i type="logical" name="LCOMPAT"> F  </i>
  </separator>
  <separator name="electronic" >
   <i type="string" name="PREC">normal</i>
   <i name="ENMAX">    400.00000000</i>
   <i name="ENAUG">    644.87300000</i>
   <i name="EDIFF">      0.00010000</i>
   <i type="int" name="IALGO">    38</i>
   <i type="int" name="IWAVPR">    11</i>
   <i type="int" name="NBANDS">     8</i>
   <i name="NELECT">      8.00000000</i>
   <i type="int" name="TURBO">     0</i>
   <i type="int" name="IRESTART">     0</i>
   <i type="int" name="NREBOOT">     0</i>
   <i type="int" name="NMIN">     0</i>
   <i name="EREF">      0.00000000</i>
   <separator name="electronic smearing" >
    <i type="int" name="ISMEAR">     0</i>
    <i name="SIGMA">      0.20000000</i>
    <i name="KSPACING">      0.50000000</i>
    <i type="logical" name="KGAMMA"> T  </i>
   </separator>
   <separator name="electronic projectors" >
    <i type="logical" name="LREAL"> F  </i>
    <v name="ROPT">      0.00000000      0.00000000</v>
    <i type="int" name="LMAXPAW">  -100</i>
    <i type="int" name="LMAXMIX">     2</i>
    <i type="logical" name="NLSPLINE"> F  </i>
   </separator>
   <separator name="electronic startup" >
    <i type="int" name="ISTART">     0</i>
    <i type="int" name="ICHARG">     2</i>
    <i type="int" name="INIWAV">     1</i>
   </separator>
   <separator name="electronic spin" >
    <i type="int" name="ISPIN">     1</i>
    <i type="logical" name="LNONCOLLINEAR"> F  </i>
    <v name="MAGMOM">      1.00000000      1.00000000      1.00000000      1.00000000      1.00000000</v>
    <i name="NUPDOWN">     -1.00000000</i>
    <i type="logical" name="LSORBIT"> F  </i>
    <v name="SAXIS">      0.00000000      0.00000000      1.00000000</v>
    <i type="logical" name="LSPIRAL"> F  </i>
    <v name="QSPIRAL">      0.00000000      0.00000000      0.00000000</v>
    <i type="logical" name="LZEROZ"> F  </i>
   </separator>
   <separator name="electronic exchange-correlation" >
    <i type="logical" name="LASPH"> F  </i>
    <i type="logical" name="LMETAGGA"> F  </i>
   </separator>
   <separator name="electronic convergence" >
    <i type="int" name="NELM">    60</i>
    <i type="int" name="NELMDL">    -5</i>
    <i type="int" name="NELMIN">     2</i>
    <i name="ENINI">    400.00000000</i>
    <separator name="electronic convergence detail" >
     <i type="logical" name="LDIAG"> T  </i>
     <i type="logical" name="LSUBROT"> T  </i>
     <i name="WEIMIN">      0.00100000</i>
     <i name="EBREAK">      0.00000313</i>
     <i name="DEPER">      0.30000000</i>
     <i type="int" name="NRMM">     4</i>
     <i name="TIME">      0.40000000</i>
    </separator>
   </separator>
   <separator name="electronic mixer" >
    <i name="AMIX">      0.40000000</i>
    <i name="BMIX">      1.00000000</i>
    <i name="AMIN">      0.10000000</i>
    <i name="AMIX_MAG">      1.60000000</i>
    <i name="BMIX_MAG">      1.00000000</i>
    <separator name="electronic mixer details" >
     <i type="int" name="IMIX">     4</i>
     <i type="int" name="MAXMIX">   -45</i>
     <i name="WC">    100.00000000</i>
     <i type="int" name="INIMIX">     1</i>
     <i type="int" name="MIXPRE">     1</i>
     <i type="int" name="MREMOVE">     5</i>
    </separator>
   </separator>
   <separator name="electronic dipolcorrection" >
    <i type="logical" name="LDIPOL"> F  </i>
    <i type="logical" name="LMONO"> F  </i>
    <i type="int" name="IDIPOL">     0</i>
    <i name="EPSILON">      1.00000000</i>
    <v name="DIPOL">   -100.00000000   -100.00000000   -100.00000000</v>
    <i name="EFIELD">      0.00000000</i>
   </separator>
  </separator>
  <separator name="grids" >
   <i type="int" name="NGX">    40</i>
   <i type="int" name="NGY">    40</i>
   <i type="int" name="NGZ">    40</i>
   <i type="int" name="NGXF">    80</i>
   <i type="int" name="NGYF">    80</i>
   <i type="int" name="NGZF">    80</i>
   <i type="logical" name="ADDGRID"> F  </i>
  </separator>
  <separator name="ionic" >
   <i type="int" name="NSW">    10</i>
   <i type="int" name="IBRION">     2</i>
   <i type="int" name="ISIF">     2</i>
   <i name="PSTRESS">      0.00000000</i>
   <i name="EDIFFG">      0.00100000</i>
   <i type="int" name="NFREE">     1</i>
   <i name="POTIM">      0.50000000</i>
   <i name="SMASS">     -3.00000000</i>
   <i name="SCALEE">      1.00000000</i>
  </separator>
  <separator name="ionic md" >
   <i name="TEBEG">      0.00010000</i>
   <i name="TEEND">      0.00010000</i>
   <i type="int" name="NBLOCK">     1</i>
   <i type="int" name="KBLOCK">    10</i>
   <i type="int" name="NPACO">   256</i>
   <i name="APACO">     16.00000000</i>
  </separator>
  <separator name="symmetry" >
   <i type="int" name="ISYM">     2</i>
   <i name="SYMPREC">      0.00001000</i>
  </separator>
  <separator name="dos" >
   <i type="logical" name="LORBIT"> F  </i>
   <v name="RWIGS">     -1.00000000     -1.00000000</v>
   <i type="int" name="NEDOS">   301</i>
   <i name="EMIN">     10.00000000</i>
   <i name="EMAX">    -10.00000000</i>
   <i name="EFERMI">      0.00000000</i>
  </separator>
  <separator name="writing" >
   <i type="int" name="NWRITE">     2</i>
   <i type="logical" name="LWAVE"> T  </i>
   <i type="logical" name="LCHARG"> T  </i>
   <i type="logical" name="LPARD"> F  </i>
   <i type="logical" name="LVTOT"> F  </i>
   <i type="logical" name="LVHAR"> F  </i>
   <i type="logical" name="LELF"> F  </i>
   <i type="logical" name="LOPTICS"> F  </i>
   <v name="STM">      0.00000000      0.00000000      0.00000000      0.00000000      0.00000000      0.00000000      0.00000000</v>
  </separator>
  <separator name="performance" >
   <i type="int" name="NPAR">     1</i>
   <i type="int" name="NSIM">     4</i>
   <i type="int" name="NBLK">    -1</i>
   <i type="logical" name="LPLANE"> T  </i>
   <i type="logical" name="LSCALAPACK"> F  </i>
   <i type="logical" name="LSCAAWARE"> F  </i>
   <i type="logical" name="LSCALU"> F  </i>
   <i type="logical" name="LASYNC"> F  </i>
   <i type="logical" name="LORBITALREAL"> F  </i>
  </separator>
  <separator name="miscellaneous" >
   <i type="int" name="IDIOT">     3</i>
   <i type="logical" name="LMUSIC"> F  </i>
   <v name="POMASS">      1.00000000     12.01100000</v>
   <v name="DARWINR">      0.00000000      0.00000000</v>
   <v name="DARWINV">      1.00000000      1.00000000</v>
   <i type="logical" name="LCORR"> T  </i>
  </separator>
  <i type="logical" name="GGA_COMPAT"> T  </i>
  <i type="logical" name="LBERRY"> F  </i>
  <i type="int" name="ICORELEVEL">     0</i>
  <i type="logical" name="LDAU"> F  </i>
  <i type="int" name="I_CONSTRAINED_M">     0</i>
  <separator name="electronic exchange-correlation" >
   <i type="string" name="GGA">--</i>
   <i type="int" name="VOSKOWN">     0</i>
   <i type="logical" name="LHFCALC"> F  </i>
   <i type="string" name="PRECFOCK"></i>
   <i type="logical" name="LHFONE"> F  </i>
   <i type="logical" name="LRHFCALC"> F  </i>
   <i type="logical" name="LTHOMAS"> F  </i>
   <i type="logical" name="LMODELHF"> F  </i>
   <i name="ENCUT4O">     -1.00000000</i>
   <i type="int" name="EXXOEP">     0</i>
   <i type="int" name="FOURORBIT">     0</i>
   <i name="AEXX">      0.00000000</i>
   <i name="HFALPHA">      0.00000000</i>
   <i name="ALDAX">      1.00000000</i>
   <i name="AGGAX">      1.00000000</i>
   <i name="ALDAC">      1.00000000</i>
   <i name="AGGAC">      1.00000000</i>
   <i type="int" name="NKREDX">     1</i>
   <i type="int" name="NKREDY">     1</i>
   <i type="int" name="NKREDZ">     1</i>
   <i type="logical" name="SHIFTRED"> F  </i>
   <i type="logical" name="ODDONLY"> F  </i>
   <i type="logical" name="EVENONLY"> F  </i>
   <i type="int" name="LMAXFOCK">     0</i>
   <i type="int" name="NMAXFOCKAE">     0</i>
   <i type="logical" name="LFOCKAEDFT"> F  </i>
   <i name="HFSCREEN">      0.00000000</i>
   <i name="HFSCREENC">      0.00000000</i>
  </separator>
  <separator name="vdW DFT" >
   <i type="logical" name="LUSE_VDW"> F  </i>
   <i name="Zab_VDW">     -0.84910000</i>
   <i name="PARAM1">      0.12340000</i>
   <i name="PARAM2">      1.00000000</i>
   <i name="PARAM3">      0.00000000</i>
  </separator>
  <separator name="model GW" >
   <i type="int" name="MODEL_GW">     0</i>
   <i name="MODEL_EPS0">     61.44000000</i>
   <i name="MODEL_ALPHA">      1.00000000</i>
  </separator>
  <separator name="linear response parameters" >
   <i type="logical" name="LEPSILON"> F  </i>
   <i type="logical" name="LRPA"> F  </i>
   <i type="logical" name="LNABLA"> F  </i>
   <i type="logical" name="LVEL"> F  </i>
   <i type="int" name="KINTER">     0</i>
   <i name="CSHIFT">      0.10000000</i>
   <i name="OMEGAMAX">     -1.00000000</i>
  </separator>
  <separator name="orbital magnetization" >
   <i type="logical" name="NUCIND"> F  </i>
   <v name="MAGPOS">      0.00000000      0.00000000      0.00000000</v>
   <i type="logical" name="LNICSALL"> T  </i>
   <i type="logical" name="ORBITALMAG"> F  </i>
   <i type="logical" name="LMAGBLOCH"> F  </i>
   <i type="logical" name="LCHIMAG"> F  </i>
   <i type="logical" name="LGAUGE"> T  </i>
   <i type="int" name="MAGATOM">     0</i>
   <v name="MAGDIPOL">      0.00000000      0.00000000      0.00000000</v>
   <v name="AVECCONST">      0.00000000      0.00000000      0.00000000</v>
  </separator>
  <separator name="response functions" >
   <i type="logical" name="LADDER"> F  </i>
   <i type="logical" name="LHARTREE"> T  </i>
   <i type="int" name="IBSE">     0</i>
   <i type="logical" name="LTCTE"> F  </i>
   <i type="logical" name="LTETE"> F  </i>
   <i type="logical" name="LFXCEPS"> F  </i>
   <i type="logical" name="L2ORDER"> F  </i>
   <i type="logical" name="LUSEW"> F  </i>
   <i name="ENCUTGW">     -2.00000000</i>
   <i name="ENCUTGWSOFT">     -2.00000000</i>
   <i name="ENCUTLF">     -1.00000000</i>
   <i type="int" name="LMAXMP2">    -1</i>
   <i name="SCISSOR">      0.00000000</i>
   <i type="int" name="NOMEGA">     0</i>
   <i type="int" name="NOMEGAR">     0</i>
   <i type="int" name="NBANDSGW">    -1</i>
   <i type="int" name="NBANDSO">    -1</i>
   <i type="int" name="NBANDSV">    -1</i>
   <i name="OPTEMAX">      0.00000000</i>
   <i type="int" name="NELM">     1</i>
   <i type="int" name="DIM">     3</i>
   <i type="int" name="ANTIRES">     0</i>
   <i name="OMEGAMAX">    -30.00000000</i>
   <i name="OMEGATL">   -200.00000000</i>
   <i type="int" name="OMEGAGRID">     0</i>
   <i name="CSHIFT">     -0.10000000</i>
   <i type="logical" name="SELFENERGY"> F  </i>
   <i type="logical" name="LSPECTRAL"> F  </i>
   <i type="logical" name="ODDONLYGW"> F  </i>
   <i type="logical" name="EVENONLYGW"> F  </i>
   <i type="int" name="NKREDLFX">     1</i>
   <i type="int" name="NKREDLFY">     1</i>
   <i type="int" name="NKREDLFZ">     1</i>
   <i type="int" name="MAXMEM">  1800</i>
   <i type="int" name="TELESCOPE">     0</i>
  </separator>
 </parameters>
 <atominfo>
  <atoms>       5 </atoms>
  <types>       2 </types>
  <array name="atoms" >
   <dimension dim="1">ion</dimension>
   <field type="string">element</field>
   <field type="int">atomtype</field>
   <set>
    <rc><c>H </c><c>   1</c></rc>
    <rc><c>H </c><c>   1</c></rc>
    <rc><c>H </c><c>   1</c></rc>
    <rc><c>H </c><c>   1</c></rc>
    <rc><c>C </c><c>   2</c></rc>
   </set>
  </array>
  <array name="atomtypes" >
   <dimension dim="1">type</dimension>
   <field type="int">atomspertype</field>
   <field type="string">element</field>
   <field>mass</field>
   <field>valence</field>
   <field type="string">pseudopotential</field>
   <set>
    <rc><c>   4</c><c>H </c><c>      1.00000000</c><c>      1.00000000</c><c> PAW_PBE H 15Jun2001                    </c></rc>
    <rc><c>   1</c><c>C </c><c>     12.01100000</c><c>      4.00000000</c><c> PAW_PBE C 08Apr2002                    </c></rc>
   </set>
  </array>
 </atominfo>
 <structure name="initialpos" >
  <crystal>
   <varray name="basis" >
    <v>       8.00000000       0.00000000       0.00000000 </v>
    <v>       0.00000000       8.00000000       0.00000000 </v>
    <v>       0.00000000       0.00000000       8.00000000 </v>
   </varray>
   <i name="volume">    512.00000000 </i>
   <varray name="rec_basis" >
    <v>       0.12500000       0.00000000       0.00000000 </v>
    <v>       0.00000000       0.12500000       0.00000000 </v>
    <v>       0.00000000       0.00000000       0.12500000 </v>
   </varray>
  </crystal>
  <varray name="positions" >
   <v>       0.07863975       0.07863975       0.07863975 </v>
   <v>       0.92136025       0.92136025       0.07863975 </v>
   <v>       0.07863975       0.92136025       0.92136025 </v>
   <v>       0.92136025       0.07863975       0.92136025 </v>
   <v>       0.00000000       0.00000000       0.00000000 </v>
  </varray>
 </structure>
 <calculation>
  <scstep>
   <time name="dav">    0.28    0.28</time>
   <time name="total">    1.09    1.10</time>
   <energy>
    <i name="alphaZ">      0.47054448 </i>
    <i name="ewald">     98.76290623 </i>
    <i name="hartreedc">   -215.08095114 </i>
    <i name="XCdc">     22.64688976 </i>
    <i name="pawpsdc">     40.95674594 </i>
    <i name="pawaedc">    -42.14325651 </i>
    <i name="eentropy">     -0.00677663 </i>
    <i name="bandstr">    -52.78676636 </i>
    <i name="atom">    197.04175453 </i>
    <i name="e_fr_energy">     49.86109030 </i>
    <i name="e_wo_entrp">     49.86786693 </i>
    <i name="e_0_energy">     49.86447861 </i>
   </energy>
  </scstep>
  <scstep>
   <time name="dav">    0.47    0.47</time>
   <time name="total">    0.47    0.47</time>
   <energy>
    <i name="e_fr_energy">    -17.29139039 </i>
    <i name="e_wo_entrp">    -17.29139039 </i>
    <i name="e_0_energy">    -17.29139039 </i>
   </energy>
  </scstep>
  <scstep>
   <time name="dav">    0.30    0.30</time>
   <time name="total">    0.30    0.32</time>
   <energy>
    <i name="e_fr_energy">    -27.31196464 </i>
    <i name="e_wo_entrp">    -27.31196464 </i>
    <i name="e_0_energy">    -27.31196464 </i>
   </energy>
  </scstep>
  <scstep>
   <time name="dav">    0.52    0.53</time>
   <time name="total">    0.52    0.63</time>
   <energy>
    <i name="e_fr_energy">    -27.66393274 </i>
    <i name="e_wo_entrp">    -27.66393274 </i>
    <i name="e_0_energy">    -27.66393274 </i>
   </energy>
  </scstep>
  <scstep>
   <time name="dav">    0.45    0.45</time>
   <time name="total">    0.61    0.67</time>
   <energy>
    <i name="e_fr_energy">    -27.66402151 </i>
    <i name="e_wo_entrp">    -27.66402151 </i>
    <i name="e_0_energy">    -27.66402151 </i>
   </energy>
  </scstep>
  <scstep>
   <time name="dav">    0.44    0.44</time>
   <time name="total">    1.57    1.58</time>
   <energy>
    <i name="e_fr_energy">    -24.68402034 </i>
    <i name="e_wo_entrp">    -24.68402034 </i>
    <i name="e_0_energy">    -24.68402034 </i>
   </energy>
  </scstep>
  <scstep>
   <time name="dav">    0.57    0.57</time>
   <time name="total">    1.69    1.70</time>
   <energy>
    <i name="e_fr_energy">    -24.17816134 </i>
    <i name="e_wo_entrp">    -24.17816134 </i>
    <i name="e_0_energy">    -24.17816134 </i>
   </energy>
  </scstep>
  <scstep>
   <time name="dav">    0.29    0.29</time>
   <time name="total">    1.27    1.33</time>
   <energy>
    <i name="e_fr_energy">    -24.01401174 </i>
    <i name="e_wo_entrp">    -24.01401174 </i>
    <i name="e_0_energy">    -24.01401174 </i>
   </energy>
  </scstep>
  <scstep>
   <time name="dav">    0.28    0.29</time>
   <time name="total">    1.25    1.26</time>
   <energy>
    <i name="e_fr_energy">    -24.01345615 </i>
    <i name="e_wo_entrp">    -24.01345615 </i>
    <i name="e_0_energy">    -24.01345615 </i>
   </energy>
  </scstep>
  <scstep>
   <time name="dav">    0.28    0.28</time>
   <time name="total">    1.23    1.32</time>
   <energy>
    <i name="e_fr_energy">    -24.01143102 </i>
    <i name="e_wo_entrp">    -24.01143102 </i>
    <i name="e_0_energy">    -24.01143102 </i>
   </energy>
  </scstep>
  <scstep>
   <time name="dav">    0.28    0.28</time>
   <time name="total">    1.20    1.21</time>
   <energy>
    <i name="e_fr_energy">    -24.01962974 </i>
    <i name="e_wo_entrp">    -24.01962974 </i>
    <i name="e_0_energy">    -24.01962974 </i>
   </energy>
  </scstep>
  <scstep>
   <time name="dav">    0.28    0.28</time>
   <time name="total">    1.20    1.39</time>
   <energy>
    <i name="e_fr_energy">    -24.02165506 </i>
    <i name="e_wo_entrp">    -24.02165506 </i>
    <i name="e_0_energy">    -24.02165506 </i>
   </energy>
  </scstep>
  <scstep>
   <time name="dav">    0.29    0.29</time>
   <time name="total">    1.20    1.21</time>
   <energy>
    <i name="e_fr_energy">    -24.02289738 </i>
    <i name="e_wo_entrp">    -24.02289738 </i>
    <i name="e_0_energy">    -24.02289738 </i>
   </energy>
  </scstep>
  <scstep>
   <time name="dav">    0.28    0.28</time>
   <time name="total">    1.06    1.07</time>
   <energy>
    <i name="alphaZ">      0.47054448 </i>
    <i name="ewald">     98.76290623 </i>
    <i name="hartreedc">   -255.60847335 </i>
    <i name="XCdc">     25.43614734 </i>
    <i name="pawpsdc">     91.22618786 </i>
    <i name="pawaedc">    -92.63132291 </i>
    <i name="eentropy">      0.00000000 </i>
    <i name="bandstr">    -88.72068033 </i>
    <i name="atom">    197.04175453 </i>
    <i name="e_fr_energy">    -24.02293615 </i>
    <i name="e_wo_entrp">    -24.02293615 </i>
    <i name="e_0_energy">    -24.02293615 </i>
   </energy>
  </scstep>
  <parameters_embedded>
   <separator name="dft+d2" >
    <i type="logical" name="LVDW"> F  </i>
   </separator>
  </parameters_embedded>
  <structure>
   <crystal>
    <varray name="basis" >
     <v>       8.00000000       0.00000000       0.00000000 </v>
     <v>       0.00000000       8.00000000       0.00000000 </v>
     <v>       0.00000000       0.00000000       8.00000000 </v>
    </varray>
    <i name="volume">    512.00000000 </i>
    <varray name="rec_basis" >
     <v>       0.12500000       0.00000000       0.00000000 </v>
     <v>       0.00000000       0.12500000       0.00000000 </v>
     <v>       0.00000000       0.00000000       0.12500000 </v>
    </varray>
   </crystal>
   <varray name="positions" >
    <v>       0.07863975       0.07863975       0.07863975 </v>
    <v>       0.92136025       0.92136025       0.07863975 </v>
    <v>       0.07863975       0.92136025       0.92136025 </v>
    <v>       0.92136025       0.07863975       0.92136025 </v>
    <v>       0.00000000       0.00000000       0.00000000 </v>
   </varray>
  </structure>
  <varray name="forces" >
   <v>       0.13820106       0.13820106       0.13820106 </v>
   <v>      -0.13820106      -0.13820106       0.13820106 </v>
   <v>       0.13820106      -0.13820106      -0.13820106 </v>
   <v>      -0.13820106       0.13820106      -0.13820106 </v>
   <v>       0.00000000       0.00000000       0.00000000 </v>
  </varray>
  <varray name="stress" >
   <v>      -0.06741392       0.00000000       0.00000000 </v>
   <v>       0.00000000      -0.06741392       0.00000000 </v>
   <v>       0.00000000       0.00000000      -0.06741392 </v>
  </varray>
  <energy>
   <i name="e_fr_energy">    -24.02293615 </i>
   <i name="e_wo_entrp">    -24.02293615 </i>
   <i name="e_0_energy">      0.00000000 </i>
  </energy>
  <time name="totalsc">   17.42   19.13</time>
 </calculation>
 <calculation>
  <scstep>
   <time name="dav">    0.30    0.30</time>
   <time name="total">    1.37    1.38</time>
   <energy>
    <i name="alphaZ">      0.47054448 </i>
    <i name="ewald">     96.08234534 </i>
    <i name="hartreedc">   -254.06667840 </i>
    <i name="XCdc">     25.35643730 </i>
    <i name="pawpsdc">     91.21749851 </i>
    <i name="pawaedc">    -92.62268022 </i>
    <i name="eentropy">      0.00000000 </i>
    <i name="bandstr">    -87.50730103 </i>
    <i name="atom">    197.04175453 </i>
    <i name="e_fr_energy">    -24.02807949 </i>
    <i name="e_wo_entrp">    -24.02807949 </i>
    <i name="e_0_energy">    -24.02807949 </i>
   </energy>
  </scstep>
  <scstep>
   <time name="dav">    0.39    0.39</time>
   <time name="total">    1.28    1.35</time>
   <energy>
    <i name="e_fr_energy">    -24.02541896 </i>
    <i name="e_wo_entrp">    -24.02541896 </i>
    <i name="e_0_energy">    -24.02541896 </i>
   </energy>
  </scstep>
  <scstep>
   <time name="dav">    0.39    0.39</time>
   <time name="total">    1.26    1.27</time>
   <energy>
    <i name="e_fr_energy">    -24.02518540 </i>
    <i name="e_wo_entrp">    -24.02518540 </i>
    <i name="e_0_energy">    -24.02518540 </i>
   </energy>
  </scstep>
  <scstep>
   <time name="dav">    0.28    0.28</time>
   <time name="total">    1.03    1.08</time>
   <energy>
    <i name="alphaZ">      0.47054448 </i>
    <i name="ewald">     96.08234534 </i>
    <i name="hartreedc">   -253.23128301 </i>
    <i name="XCdc">     25.30893766 </i>
    <i name="pawpsdc">     89.00520893 </i>
    <i name="pawaedc">    -90.39853303 </i>
    <i name="eentropy">      0.00000000 </i>
    <i name="bandstr">    -88.30415995 </i>
    <i name="atom">    197.04175453 </i>
    <i name="e_fr_energy">    -24.02518506 </i>
    <i name="e_wo_entrp">    -24.02518506 </i>
    <i name="e_0_energy">    -24.02518506 </i>
   </energy>
  </scstep>
  <structure>
   <crystal>
    <varray name="basis" >
     <v>       8.00000000       0.00000000       0.00000000 </v>
     <v>       0.00000000       8.00000000       0.00000000 </v>
     <v>       0.00000000       0.00000000       8.00000000 </v>
    </varray>
    <i name="volume">    512.00000000 </i>
    <varray name="rec_basis" >
     <v>       0.12500000       0.00000000       0.00000000 </v>
     <v>       0.00000000       0.12500000       0.00000000 </v>
     <v>       0.00000000       0.00000000       0.12500000 </v>
    </varray>
   </crystal>
   <varray name="positions" >
    <v>       0.07947315       0.07947315       0.07947315 </v>
    <v>       0.92052685       0.92052685       0.07947315 </v>
    <v>       0.07947315       0.92052685       0.92052685 </v>
    <v>       0.92052685       0.07947315       0.92052685 </v>
    <v>       0.00000000       0.00000000       0.00000000 </v>
   </varray>
  </structure>
  <varray name="forces" >
   <v>      -0.08926084      -0.08926084      -0.08926084 </v>
   <v>       0.08926084       0.08926084      -0.08926084 </v>
   <v>      -0.08926084       0.08926084       0.08926084 </v>
   <v>       0.08926084      -0.08926084       0.08926084 </v>
   <v>       0.00000000       0.00000000       0.00000000 </v>
  </varray>
  <varray name="stress" >
   <v>      -1.62126075       0.00000000       0.00000000 </v>
   <v>       0.00000000      -1.62126075       0.00000000 </v>
   <v>       0.00000000       0.00000000      -1.62126075 </v>
  </varray>
  <energy>
   <i name="e_fr_energy">    -24.02518506 </i>
   <i name="e_wo_entrp">    -24.02518506 </i>
   <i name="e_0_energy">      0.00000000 </i>
  </energy>
  <time name="totalsc">    6.86    7.72</time>
 </calculation>
 <calculation>
  <scstep>
   <time name="dav">    0.32    0.32</time>
   <time name="total">    1.35    1.35</time>
   <energy>
    <i name="alphaZ">      0.47054448 </i>
    <i name="ewald">     97.12735600 </i>
    <i name="hartreedc">   -253.82877837 </i>
    <i name="XCdc">     25.33975094 </i>
    <i name="pawpsdc">     89.00262178 </i>
    <i name="pawaedc">    -90.39594675 </i>
    <i name="eentropy">      0.00000000 </i>
    <i name="bandstr">    -88.78441162 </i>
    <i name="atom">    197.04175453 </i>
    <i name="e_fr_energy">    -24.02710901 </i>
    <i name="e_wo_entrp">    -24.02710901 </i>
    <i name="e_0_energy">    -24.02710901 </i>
   </energy>
  </scstep>
  <scstep>
   <time name="dav">    0.44    0.44</time>
   <time name="total">    1.48    1.48</time>
   <energy>
    <i name="e_fr_energy">    -24.02645870 </i>
    <i name="e_wo_entrp">    -24.02645870 </i>
    <i name="e_0_energy">    -24.02645870 </i>
   </energy>
  </scstep>
  <scstep>
   <time name="dav">    0.32    0.32</time>
   <time name="total">    1.23    1.31</time>
   <energy>
    <i name="alphaZ">      0.47054448 </i>
    <i name="ewald">     97.12735600 </i>
    <i name="hartreedc">   -254.19620195 </i>
    <i name="XCdc">     25.35907106 </i>
    <i name="pawpsdc">     89.70895643 </i>
    <i name="pawaedc">    -91.10757937 </i>
    <i name="eentropy">      0.00000000 </i>
    <i name="bandstr">    -88.43032533 </i>
    <i name="atom">    197.04175453 </i>
    <i name="e_fr_energy">    -24.02642416 </i>
    <i name="e_wo_entrp">    -24.02642416 </i>
    <i name="e_0_energy">    -24.02642416 </i>
   </energy>
  </scstep>
  <structure>
   <crystal>
    <varray name="basis" >
     <v>       8.00000000       0.00000000       0.00000000 </v>
     <v>       0.00000000       8.00000000       0.00000000 </v>
     <v>       0.00000000       0.00000000       8.00000000 </v>
    </varray>
    <i name="volume">    512.00000000 </i>
    <varray name="rec_basis" >
     <v>       0.12500000       0.00000000       0.00000000 </v>
     <v>       0.00000000       0.12500000       0.00000000 </v>
     <v>       0.00000000       0.00000000       0.12500000 </v>
    </varray>
   </crystal>
   <varray name="positions" >
    <v>       0.07914611       0.07914611       0.07914611 </v>
    <v>       0.92085389       0.92085389       0.07914611 </v>
    <v>       0.07914611       0.92085389       0.92085389 </v>
    <v>       0.92085389       0.07914611       0.92085389 </v>
    <v>       0.00000000       0.00000000       0.00000000 </v>
   </varray>
  </structure>
  <varray name="forces" >
   <v>       0.00623910       0.00623910       0.00623910 </v>
   <v>      -0.00623910      -0.00623910       0.00623910 </v>
   <v>       0.00623910      -0.00623910      -0.00623910 </v>
   <v>      -0.00623910       0.00623910      -0.00623910 </v>
   <v>       0.00000000       0.00000000       0.00000000 </v>
  </varray>
  <varray name="stress" >
   <v>      -1.14870772       0.00000000       0.00000000 </v>
   <v>       0.00000000      -1.14870772       0.00000000 </v>
   <v>       0.00000000       0.00000000      -1.14870772 </v>
  </varray>
  <energy>
   <i name="e_fr_energy">    -24.02642416 </i>
   <i name="e_wo_entrp">    -24.02642416 </i>
   <i name="e_0_energy">      0.00000000 </i>
  </energy>
  <time name="totalsc">    5.81    6.32</time>
  <eigenvalues>
   <array>
    <dimension dim="1">band</dimension>
    <dimension dim="2">kpoint</dimension>
    <dimension dim="3">spin</dimension>
    <field>eigene</field>
    <field>occ</field>
    <set>
     <set comment="spin 1">
      <set comment="kpoint 1">
       <r>  -16.7509    1.0000 </r>
       <r>   -9.1548    1.0000 </r>
       <r>   -9.1548    1.0000 </r>
       <r>   -9.1548    1.0000 </r>
       <r>   -0.6287    0.0000 </r>
       <r>    1.7216    0.0000 </r>
       <r>    1.7217    0.0000 </r>
       <r>    1.7217    0.0000 </r>
      </set>
     </set>
    </set>
   </array>
  </eigenvalues>
  <separator name="orbital magnetization" >
   <v name="MAGDIPOLOUT">      0.00000000      0.00000000      0.00000000</v>
  </separator>
  <dos>
   <i name="efermi">     -8.18863967 </i>
   <total>
    <array>
     <dimension dim="1">gridpoints</dimension>
     <dimension dim="2">spin</dimension>
     <field>energy</field>
     <field>total</field>
     <field>integrated</field>
     <set>
      <set comment="spin 1">
       <r>   -18.7509     0.0000     0.0000 </r>
       <r>   -18.6760     0.0000     0.0000 </r>
       <r>   -18.6011     0.0000     0.0000 </r>
       <r>   -18.5262     0.0000     0.0000 </r>
       <r>   -18.4512     0.0000     0.0000 </r>
       <r>   -18.3763     0.0000     0.0000 </r>
       <r>   -18.3014     0.0000     0.0000 </r>
       <r>   -18.2265     0.0000     0.0000 </r>
       <r>   -18.1516     0.0000     0.0000 </r>
       <r>   -18.0767     0.0000     0.0000 </r>
       <r>   -18.0018     0.0000     0.0000 </r>
       <r>   -17.9269     0.0000     0.0000 </r>
       <r>   -17.8520     0.0000     0.0000 </r>
       <r>   -17.7771     0.0000     0.0000 </r>
       <r>   -17.7022     0.0000     0.0000 </r>
       <r>   -17.6273     0.0000     0.0000 </r>
       <r>   -17.5523     0.0000     0.0000 </r>
       <r>   -17.4774     0.0000     0.0000 </r>
       <r>   -17.4025     0.0001     0.0000 </r>
       <r>   -17.3276     0.0006     0.0000 </r>
       <r>   -17.2527     0.0046     0.0004 </r>
       <r>   -17.1778     0.0287     0.0025 </r>
       <r>   -17.1029     0.1371     0.0128 </r>
       <r>   -17.0280     0.4974     0.0501 </r>
       <r>   -16.9531     1.3714     0.1528 </r>
       <r>   -16.8782     2.8741     0.3681 </r>
       <r>   -16.8033     4.5791     0.7111 </r>
       <r>   -16.7284     5.5464     1.1266 </r>
       <r>   -16.6534     5.1075     1.5092 </r>
       <r>   -16.5785     3.5759     1.7770 </r>
       <r>   -16.5036     1.9032     1.9196 </r>
       <r>   -16.4287     0.7700     1.9773 </r>
       <r>   -16.3538     0.2368     1.9950 </r>
       <r>   -16.2789     0.0553     1.9992 </r>
       <r>   -16.2040     0.0098     1.9999 </r>
       <r>   -16.1291     0.0013     2.0000 </r>
       <r>   -16.0542     0.0001     2.0000 </r>
       <r>   -15.9793     0.0000     2.0000 </r>
       <r>   -15.9044     0.0000     2.0000 </r>
       <r>   -15.8295     0.0000     2.0000 </r>
       <r>   -15.7545     0.0000     2.0000 </r>
       <r>   -15.6796     0.0000     2.0000 </r>
       <r>   -15.6047     0.0000     2.0000 </r>
       <r>   -15.5298     0.0000     2.0000 </r>
       <r>   -15.4549     0.0000     2.0000 </r>
       <r>   -15.3800     0.0000     2.0000 </r>
       <r>   -15.3051     0.0000     2.0000 </r>
       <r>   -15.2302     0.0000     2.0000 </r>
       <r>   -15.1553     0.0000     2.0000 </r>
       <r>   -15.0804     0.0000     2.0000 </r>
       <r>   -15.0055     0.0000     2.0000 </r>
       <r>   -14.9305     0.0000     2.0000 </r>
       <r>   -14.8556     0.0000     2.0000 </r>
       <r>   -14.7807     0.0000     2.0000 </r>
       <r>   -14.7058     0.0000     2.0000 </r>
       <r>   -14.6309     0.0000     2.0000 </r>
       <r>   -14.5560     0.0000     2.0000 </r>
       <r>   -14.4811     0.0000     2.0000 </r>
       <r>   -14.4062     0.0000     2.0000 </r>
       <r>   -14.3313     0.0000     2.0000 </r>
       <r>   -14.2564     0.0000     2.0000 </r>
       <r>   -14.1815     0.0000     2.0000 </r>
       <r>   -14.1066     0.0000     2.0000 </r>
       <r>   -14.0316     0.0000     2.0000 </r>
       <r>   -13.9567     0.0000     2.0000 </r>
       <r>   -13.8818     0.0000     2.0000 </r>
       <r>   -13.8069     0.0000     2.0000 </r>
       <r>   -13.7320     0.0000     2.0000 </r>
       <r>   -13.6571     0.0000     2.0000 </r>
       <r>   -13.5822     0.0000     2.0000 </r>
       <r>   -13.5073     0.0000     2.0000 </r>
       <r>   -13.4324     0.0000     2.0000 </r>
       <r>   -13.3575     0.0000     2.0000 </r>
       <r>   -13.2826     0.0000     2.0000 </r>
       <r>   -13.2077     0.0000     2.0000 </r>
       <r>   -13.1327     0.0000     2.0000 </r>
       <r>   -13.0578     0.0000     2.0000 </r>
       <r>   -12.9829     0.0000     2.0000 </r>
       <r>   -12.9080     0.0000     2.0000 </r>
       <r>   -12.8331     0.0000     2.0000 </r>
       <r>   -12.7582     0.0000     2.0000 </r>
       <r>   -12.6833     0.0000     2.0000 </r>
       <r>   -12.6084     0.0000     2.0000 </r>
       <r>   -12.5335     0.0000     2.0000 </r>
       <r>   -12.4586     0.0000     2.0000 </r>
       <r>   -12.3837     0.0000     2.0000 </r>
       <r>   -12.3088     0.0000     2.0000 </r>
       <r>   -12.2338     0.0000     2.0000 </r>
       <r>   -12.1589     0.0000     2.0000 </r>
       <r>   -12.0840     0.0000     2.0000 </r>
       <r>   -12.0091     0.0000     2.0000 </r>
       <r>   -11.9342     0.0000     2.0000 </r>
       <r>   -11.8593     0.0000     2.0000 </r>
       <r>   -11.7844     0.0000     2.0000 </r>
       <r>   -11.7095     0.0000     2.0000 </r>
       <r>   -11.6346     0.0000     2.0000 </r>
       <r>   -11.5597     0.0000     2.0000 </r>
       <r>   -11.4848     0.0000     2.0000 </r>
       <r>   -11.4099     0.0000     2.0000 </r>
       <r>   -11.3349     0.0000     2.0000 </r>
       <r>   -11.2600     0.0000     2.0000 </r>
       <r>   -11.1851     0.0000     2.0000 </r>
       <r>   -11.1102     0.0000     2.0000 </r>
       <r>   -11.0353     0.0000     2.0000 </r>
       <r>   -10.9604     0.0000     2.0000 </r>
       <r>   -10.8855     0.0000     2.0000 </r>
       <r>   -10.8106     0.0000     2.0000 </r>
       <r>   -10.7357     0.0000     2.0000 </r>
       <r>   -10.6608     0.0000     2.0000 </r>
       <r>   -10.5859     0.0000     2.0000 </r>
       <r>   -10.5109     0.0000     2.0000 </r>
       <r>   -10.4360     0.0000     2.0000 </r>
       <r>   -10.3611     0.0000     2.0000 </r>
       <r>   -10.2862     0.0000     2.0000 </r>
       <r>   -10.2113     0.0000     2.0000 </r>
       <r>   -10.1364     0.0000     2.0000 </r>
       <r>   -10.0615     0.0000     2.0000 </r>
       <r>    -9.9866     0.0000     2.0000 </r>
       <r>    -9.9117     0.0000     2.0000 </r>
       <r>    -9.8368     0.0001     2.0000 </r>
       <r>    -9.7619     0.0006     2.0001 </r>
       <r>    -9.6870     0.0060     2.0005 </r>
       <r>    -9.6120     0.0423     2.0037 </r>
       <r>    -9.5371     0.2256     2.0206 </r>
       <r>    -9.4622     0.9147     2.0891 </r>
       <r>    -9.3873     2.8189     2.3002 </r>
       <r>    -9.3124     6.6027     2.7948 </r>
       <r>    -9.2375    11.7559     3.6755 </r>
       <r>    -9.1626    15.9125     4.8674 </r>
       <r>    -9.0877    16.3753     6.0941 </r>
       <r>    -9.0128    12.8118     7.0538 </r>
       <r>    -8.9379     7.6205     7.6246 </r>
       <r>    -8.8630     3.4456     7.8828 </r>
       <r>    -8.7881     1.1842     7.9715 </r>
       <r>    -8.7131     0.3093     7.9946 </r>
       <r>    -8.6382     0.0614     7.9992 </r>
       <r>    -8.5633     0.0092     7.9999 </r>
       <r>    -8.4884     0.0011     8.0000 </r>
       <r>    -8.4135     0.0001     8.0000 </r>
       <r>    -8.3386     0.0000     8.0000 </r>
       <r>    -8.2637     0.0000     8.0000 </r>
       <r>    -8.1888     0.0000     8.0000 </r>
       <r>    -8.1139     0.0000     8.0000 </r>
       <r>    -8.0390     0.0000     8.0000 </r>
       <r>    -7.9641     0.0000     8.0000 </r>
       <r>    -7.8892     0.0000     8.0000 </r>
       <r>    -7.8142     0.0000     8.0000 </r>
       <r>    -7.7393     0.0000     8.0000 </r>
       <r>    -7.6644     0.0000     8.0000 </r>
       <r>    -7.5895     0.0000     8.0000 </r>
       <r>    -7.5146     0.0000     8.0000 </r>
       <r>    -7.4397     0.0000     8.0000 </r>
       <r>    -7.3648     0.0000     8.0000 </r>
       <r>    -7.2899     0.0000     8.0000 </r>
       <r>    -7.2150     0.0000     8.0000 </r>
       <r>    -7.1401     0.0000     8.0000 </r>
       <r>    -7.0652     0.0000     8.0000 </r>
       <r>    -6.9903     0.0000     8.0000 </r>
       <r>    -6.9153     0.0000     8.0000 </r>
       <r>    -6.8404     0.0000     8.0000 </r>
       <r>    -6.7655     0.0000     8.0000 </r>
       <r>    -6.6906     0.0000     8.0000 </r>
       <r>    -6.6157     0.0000     8.0000 </r>
       <r>    -6.5408     0.0000     8.0000 </r>
       <r>    -6.4659     0.0000     8.0000 </r>
       <r>    -6.3910     0.0000     8.0000 </r>
       <r>    -6.3161     0.0000     8.0000 </r>
       <r>    -6.2412     0.0000     8.0000 </r>
       <r>    -6.1663     0.0000     8.0000 </r>
       <r>    -6.0913     0.0000     8.0000 </r>
       <r>    -6.0164     0.0000     8.0000 </r>
       <r>    -5.9415     0.0000     8.0000 </r>
       <r>    -5.8666     0.0000     8.0000 </r>
       <r>    -5.7917     0.0000     8.0000 </r>
       <r>    -5.7168     0.0000     8.0000 </r>
       <r>    -5.6419     0.0000     8.0000 </r>
       <r>    -5.5670     0.0000     8.0000 </r>
       <r>    -5.4921     0.0000     8.0000 </r>
       <r>    -5.4172     0.0000     8.0000 </r>
       <r>    -5.3423     0.0000     8.0000 </r>
       <r>    -5.2674     0.0000     8.0000 </r>
       <r>    -5.1924     0.0000     8.0000 </r>
       <r>    -5.1175     0.0000     8.0000 </r>
       <r>    -5.0426     0.0000     8.0000 </r>
       <r>    -4.9677     0.0000     8.0000 </r>
       <r>    -4.8928     0.0000     8.0000 </r>
       <r>    -4.8179     0.0000     8.0000 </r>
       <r>    -4.7430     0.0000     8.0000 </r>
       <r>    -4.6681     0.0000     8.0000 </r>
       <r>    -4.5932     0.0000     8.0000 </r>
       <r>    -4.5183     0.0000     8.0000 </r>
       <r>    -4.4434     0.0000     8.0000 </r>
       <r>    -4.3685     0.0000     8.0000 </r>
       <r>    -4.2935     0.0000     8.0000 </r>
       <r>    -4.2186     0.0000     8.0000 </r>
       <r>    -4.1437     0.0000     8.0000 </r>
       <r>    -4.0688     0.0000     8.0000 </r>
       <r>    -3.9939     0.0000     8.0000 </r>
       <r>    -3.9190     0.0000     8.0000 </r>
       <r>    -3.8441     0.0000     8.0000 </r>
       <r>    -3.7692     0.0000     8.0000 </r>
       <r>    -3.6943     0.0000     8.0000 </r>
       <r>    -3.6194     0.0000     8.0000 </r>
       <r>    -3.5445     0.0000     8.0000 </r>
       <r>    -3.4696     0.0000     8.0000 </r>
       <r>    -3.3946     0.0000     8.0000 </r>
       <r>    -3.3197     0.0000     8.0000 </r>
       <r>    -3.2448     0.0000     8.0000 </r>
       <r>    -3.1699     0.0000     8.0000 </r>
       <r>    -3.0950     0.0000     8.0000 </r>
       <r>    -3.0201     0.0000     8.0000 </r>
       <r>    -2.9452     0.0000     8.0000 </r>
       <r>    -2.8703     0.0000     8.0000 </r>
       <r>    -2.7954     0.0000     8.0000 </r>
       <r>    -2.7205     0.0000     8.0000 </r>
       <r>    -2.6456     0.0000     8.0000 </r>
       <r>    -2.5707     0.0000     8.0000 </r>
       <r>    -2.4957     0.0000     8.0000 </r>
       <r>    -2.4208     0.0000     8.0000 </r>
       <r>    -2.3459     0.0000     8.0000 </r>
       <r>    -2.2710     0.0000     8.0000 </r>
       <r>    -2.1961     0.0000     8.0000 </r>
       <r>    -2.1212     0.0000     8.0000 </r>
       <r>    -2.0463     0.0000     8.0000 </r>
       <r>    -1.9714     0.0000     8.0000 </r>
       <r>    -1.8965     0.0000     8.0000 </r>
       <r>    -1.8216     0.0000     8.0000 </r>
       <r>    -1.7467     0.0000     8.0000 </r>
       <r>    -1.6717     0.0000     8.0000 </r>
       <r>    -1.5968     0.0000     8.0000 </r>
       <r>    -1.5219     0.0000     8.0000 </r>
       <r>    -1.4470     0.0000     8.0000 </r>
       <r>    -1.3721     0.0000     8.0000 </r>
       <r>    -1.2972     0.0000     8.0000 </r>
       <r>    -1.2223     0.0003     8.0000 </r>
       <r>    -1.1474     0.0029     8.0002 </r>
       <r>    -1.0725     0.0194     8.0017 </r>
       <r>    -0.9976     0.0987     8.0091 </r>
       <r>    -0.9227     0.3810     8.0376 </r>
       <r>    -0.8478     1.1176     8.1214 </r>
       <r>    -0.7728     2.4917     8.3080 </r>
       <r>    -0.6979     4.2227     8.6243 </r>
       <r>    -0.6230     5.4406     9.0319 </r>
       <r>    -0.5481     5.3293     9.4311 </r>
       <r>    -0.4732     3.9688     9.7284 </r>
       <r>    -0.3983     2.2470     9.8967 </r>
       <r>    -0.3234     0.9670     9.9691 </r>
       <r>    -0.2485     0.3163     9.9928 </r>
       <r>    -0.1736     0.0786     9.9987 </r>
       <r>    -0.0987     0.0148     9.9998 </r>
       <r>    -0.0238     0.0021    10.0000 </r>
       <r>     0.0511     0.0002    10.0000 </r>
       <r>     0.1261     0.0000    10.0000 </r>
       <r>     0.2010     0.0000    10.0000 </r>
       <r>     0.2759     0.0000    10.0000 </r>
       <r>     0.3508     0.0000    10.0000 </r>
       <r>     0.4257     0.0000    10.0000 </r>
       <r>     0.5006     0.0000    10.0000 </r>
       <r>     0.5755     0.0000    10.0000 </r>
       <r>     0.6504     0.0000    10.0000 </r>
       <r>     0.7253     0.0000    10.0000 </r>
       <r>     0.8002     0.0000    10.0000 </r>
       <r>     0.8751     0.0000    10.0000 </r>
       <r>     0.9500     0.0000    10.0000 </r>
       <r>     1.0250     0.0000    10.0000 </r>
       <r>     1.0999     0.0004    10.0000 </r>
       <r>     1.1748     0.0040    10.0003 </r>
       <r>     1.2497     0.0295    10.0025 </r>
       <r>     1.3246     0.1660    10.0150 </r>
       <r>     1.3995     0.7104    10.0682 </r>
       <r>     1.4744     2.3102    10.2412 </r>
       <r>     1.5493     5.7101    10.6690 </r>
       <r>     1.6242    10.7281    11.4726 </r>
       <r>     1.6991    15.3229    12.6204 </r>
       <r>     1.7740    16.6390    13.8668 </r>
       <r>     1.8490    13.7368    14.8958 </r>
       <r>     1.9239     8.6219    15.5417 </r>
       <r>     1.9988     4.1138    15.8498 </r>
       <r>     2.0737     1.4919    15.9616 </r>
       <r>     2.1486     0.4112    15.9924 </r>
       <r>     2.2235     0.0861    15.9988 </r>
       <r>     2.2984     0.0137    15.9999 </r>
       <r>     2.3733     0.0017    16.0000 </r>
       <r>     2.4482     0.0002    16.0000 </r>
       <r>     2.5231     0.0000    16.0000 </r>
       <r>     2.5980     0.0000    16.0000 </r>
       <r>     2.6729     0.0000    16.0000 </r>
       <r>     2.7479     0.0000    16.0000 </r>
       <r>     2.8228     0.0000    16.0000 </r>
       <r>     2.8977     0.0000    16.0000 </r>
       <r>     2.9726     0.0000    16.0000 </r>
       <r>     3.0475     0.0000    16.0000 </r>
       <r>     3.1224     0.0000    16.0000 </r>
       <r>     3.1973     0.0000    16.0000 </r>
       <r>     3.2722     0.0000    16.0000 </r>
       <r>     3.3471     0.0000    16.0000 </r>
       <r>     3.4220     0.0000    16.0000 </r>
       <r>     3.4969     0.0000    16.0000 </r>
       <r>     3.5718     0.0000    16.0000 </r>
       <r>     3.6468     0.0000    16.0000 </r>
       <r>     3.7217     0.0000    16.0000 </r>
      </set>
     </set>
    </array>
   </total>
  </dos>
 </calculation>
 <structure name="finalpos" >
  <crystal>
   <varray name="basis" >
    <v>       8.00000000       0.00000000       0.00000000 </v>
    <v>       0.00000000       8.00000000       0.00000000 </v>
    <v>       0.00000000       0.00000000       8.00000000 </v>
   </varray>
   <i name="volume">    512.00000000 </i>
   <varray name="rec_basis" >
    <v>       0.12500000       0.00000000       0.00000000 </v>
    <v>       0.00000000       0.12500000       0.00000000 </v>
    <v>       0.00000000       0.00000000       0.12500000 </v>
   </varray>
  </crystal>
  <varray name="positions" >
   <v>       0.07914611       0.07914611       0.07914611 </v>
   <v>       0.92085389       0.92085389       0.07914611 </v>
   <v>       0.07914611       0.92085389       0.92085389 </v>
   <v>       0.92085389       0.07914611       0.92085389 </v>
   <v>       0.00000000       0.00000000       0.00000000 </v>
  </varray>
 </structure>
</modeling>
