 running on    1 nodes
 distr:  one band on    1 nodes,    1 groups
 vasp.5.2.12 11Nov11 complex                                                    
  
 POSCAR found :  2 types and       4 ions
 LDA part: xc-table for Pade appr. of Perdew
 POSCAR, INCAR and KPOINTS ok, starting setup
 WARNING: small aliasing (wrap around) errors must be expected
 FFT: planning ...(           1 )
 WAVECAR not read
 entering main loop
       N       E                     dE             d eps       ncg     rms          rms(c)
DAV:   1     0.715508718298E+02    0.71551E+02   -0.24273E+03    18   0.512E+02
DAV:   2    -0.691013701828E+01   -0.78461E+02   -0.77766E+02    26   0.124E+02
DAV:   3    -0.260917124240E+02   -0.19182E+02   -0.19187E+02    28   0.889E+01
DAV:   4    -0.263860299206E+02   -0.29432E+00   -0.29350E+00    28   0.128E+01
DAV:   5    -0.263864314103E+02   -0.40149E-03   -0.40145E-03    27   0.512E-01    0.854E+00
DAV:   6    -0.235414099397E+02    0.28450E+01   -0.50266E+00    18   0.153E+01    0.387E+00
DAV:   7    -0.229487972155E+02    0.59261E+00   -0.25302E+00    27   0.102E+01    0.140E+00
DAV:   8    -0.229050981714E+02    0.43699E-01   -0.18391E-01    20   0.336E+00    0.420E-01
DAV:   9    -0.228937269817E+02    0.11371E-01   -0.28807E-02    28   0.117E+00    0.170E-01
DAV:  10    -0.228953949079E+02   -0.16679E-02   -0.12693E-02    18   0.645E-01    0.520E-02
DAV:  11    -0.228996739500E+02   -0.42790E-02   -0.21364E-03    19   0.287E-01    0.547E-02
DAV:  12    -0.229045161016E+02   -0.48422E-02   -0.13800E-03    19   0.246E-01    0.139E-02
DAV:  13    -0.229057987587E+02   -0.12827E-02   -0.20809E-04    19   0.958E-02    0.132E-02
DAV:  14    -0.229061273796E+02   -0.32862E-03   -0.88911E-05    18   0.555E-02    0.322E-03
DAV:  15    -0.229062351928E+02   -0.10781E-03   -0.14915E-05    19   0.239E-02    0.271E-03
DAV:  16    -0.229062403521E+02   -0.51593E-05   -0.70705E-07    19   0.522E-03
   1 F= -.22906240E+02 E0= -.22913971E+02  d E =0.231916E-01
 writing wavefunctions
NPROCS =  1
