   4   4   0   0
  0.1280000E+03  0.8000000E-09  0.8000000E-09  0.8000000E-09  0.5000000E-15
  1.000000000000000E-004
  CAR 
 unknown system                          
      3.03227825    -20.25007293  301     -6.66858075      1.00000000
    -20.250  0.0000E+00  0.0000E+00
    -20.172  0.0000E+00  0.0000E+00
    -20.095  0.0000E+00  0.0000E+00
    -20.017  0.0000E+00  0.0000E+00
    -19.940  0.0000E+00  0.0000E+00
    -19.862 -0.3597E-26 -0.2791E-27
    -19.784 -0.1530E-23 -0.1190E-24
    -19.707 -0.4809E-21 -0.3744E-22
    -19.629 -0.1115E-18 -0.8691E-20
    -19.552 -0.1907E-16 -0.1488E-17
    -19.474 -0.2402E-14 -0.1879E-15
    -19.396 -0.2158E-12 -0.1693E-13
    -19.319 -0.1470E-10 -0.1157E-11
    -19.241 -0.7332E-09 -0.5806E-10
    -19.164 -0.2681E-07 -0.2139E-08
    -19.086 -0.7167E-06 -0.5776E-07
    -19.008 -0.1395E-04 -0.1141E-05
    -18.931 -0.1969E-03 -0.1642E-04
    -18.853 -0.1997E-02 -0.1714E-03
    -18.776 -0.1438E-01 -0.1287E-02
    -18.698 -0.7170E-01 -0.6852E-02
    -18.620 -0.2350E+00 -0.2509E-01
    -18.543 -0.4308E+00 -0.5852E-01
    -18.465 -0.5175E-01 -0.6254E-01
    -18.387  0.1958E+01  0.8945E-01
    -18.310  0.5523E+01  0.5181E+00
    -18.232  0.8142E+01  0.1150E+01
    -18.155  0.7273E+01  0.1714E+01
    -18.077  0.3805E+01  0.2010E+01
    -17.999  0.7850E+00  0.2071E+01
    -17.922 -0.3650E+00  0.2042E+01
    -17.844 -0.3584E+00  0.2015E+01
    -17.767 -0.1444E+00  0.2003E+01
    -17.689 -0.3599E-01  0.2001E+01
    -17.611 -0.6073E-02  0.2000E+01
    -17.534 -0.7192E-03  0.2000E+01
    -17.456 -0.6086E-04  0.2000E+01
    -17.379 -0.3718E-05  0.2000E+01
    -17.301 -0.1650E-06  0.2000E+01
    -17.223 -0.5345E-08  0.2000E+01
    -17.146 -0.1267E-09  0.2000E+01
    -17.068 -0.2203E-11  0.2000E+01
    -16.991 -0.2861E-13  0.2000E+01
    -16.913  0.0000E+00  0.2000E+01
    -16.835  0.0000E+00  0.2000E+01
    -16.758  0.0000E+00  0.2000E+01
    -16.680  0.0000E+00  0.2000E+01
    -16.603  0.0000E+00  0.2000E+01
    -16.525  0.0000E+00  0.2000E+01
    -16.447  0.0000E+00  0.2000E+01
    -16.370  0.0000E+00  0.2000E+01
    -16.292  0.0000E+00  0.2000E+01
    -16.214  0.0000E+00  0.2000E+01
    -16.137  0.0000E+00  0.2000E+01
    -16.059  0.0000E+00  0.2000E+01
    -15.982  0.0000E+00  0.2000E+01
    -15.904  0.0000E+00  0.2000E+01
    -15.826  0.0000E+00  0.2000E+01
    -15.749  0.0000E+00  0.2000E+01
    -15.671  0.0000E+00  0.2000E+01
    -15.594  0.0000E+00  0.2000E+01
    -15.516  0.0000E+00  0.2000E+01
    -15.438 -0.6730E-28  0.2000E+01
    -15.361 -0.3468E-25  0.2000E+01
    -15.283 -0.1321E-22  0.2000E+01
    -15.206 -0.3712E-20  0.2000E+01
    -15.128 -0.7694E-18  0.2000E+01
    -15.050 -0.1176E-15  0.2000E+01
    -14.973 -0.1323E-13  0.2000E+01
    -14.895 -0.1062E-11  0.2000E+01
    -14.818 -0.6442E-10  0.2000E+01
    -14.740 -0.2867E-08  0.2000E+01
    -14.662 -0.9342E-07  0.2000E+01
    -14.585 -0.2223E-05  0.2000E+01
    -14.507 -0.3846E-04  0.2000E+01
    -14.429 -0.4811E-03  0.2000E+01
    -14.352 -0.4309E-02  0.2000E+01
    -14.274 -0.2719E-01  0.1998E+01
    -14.197 -0.1172E+00  0.1988E+01
    -14.119 -0.3198E+00  0.1964E+01
    -14.041 -0.4133E+00  0.1932E+01
    -13.964  0.4555E+00  0.1967E+01
    -13.886  0.3177E+01  0.2213E+01
    -13.809  0.6780E+01  0.2740E+01
    -13.731  0.8269E+01  0.3381E+01
    -13.653  0.6138E+01  0.3858E+01
    -13.576  0.2502E+01  0.4052E+01
    -13.498  0.1534E+00  0.4064E+01
    -13.421 -0.4346E+00  0.4030E+01
    -13.343 -0.2741E+00  0.4009E+01
    -13.265 -0.9086E-01  0.4002E+01
    -13.188 -0.1949E-01  0.4000E+01
    -13.110 -0.2878E-02  0.4000E+01
    -13.033 -0.3007E-03  0.4000E+01
    -12.955 -0.2254E-04  0.4000E+01
    -12.877 -0.1223E-05  0.4000E+01
    -12.800 -0.5873E-07  0.4000E+01
    -12.722 -0.3045E-06  0.4000E+01
    -12.645 -0.6434E-05  0.4000E+01
    -12.567 -0.9914E-04  0.4000E+01
    -12.489 -0.1101E-02  0.4000E+01
    -12.412 -0.8715E-02  0.3999E+01
    -12.334 -0.4818E-01  0.3995E+01
    -12.256 -0.1784E+00  0.3982E+01
    -12.179 -0.3955E+00  0.3951E+01
    -12.101 -0.2734E+00  0.3930E+01
    -12.024  0.1213E+01  0.4024E+01
    -11.946  0.4508E+01  0.4374E+01
    -11.868  0.7714E+01  0.4972E+01
    -11.791  0.7875E+01  0.5584E+01
    -11.713  0.4825E+01  0.5958E+01
    -11.636  0.1428E+01  0.6069E+01
    -11.558 -0.2170E+00  0.6052E+01
    -11.480 -0.4094E+00  0.6020E+01
    -11.403 -0.1951E+00  0.6005E+01
    -11.325 -0.5466E-01  0.6001E+01
    -11.248 -0.1020E-01  0.6000E+01
    -11.170 -0.1327E-02  0.6000E+01
    -11.092 -0.1229E-03  0.6000E+01
    -11.015 -0.8196E-05  0.6000E+01
    -10.937 -0.3965E-06  0.6000E+01
    -10.860 -0.1399E-07  0.6000E+01
    -10.782 -0.3608E-09  0.6000E+01
    -10.704 -0.6821E-11  0.6000E+01
    -10.627 -0.9728E-13  0.6000E+01
    -10.549  0.0000E+00  0.6000E+01
    -10.471  0.0000E+00  0.6000E+01
    -10.394  0.0000E+00  0.6000E+01
    -10.316  0.0000E+00  0.6000E+01
    -10.239  0.0000E+00  0.6000E+01
    -10.161  0.0000E+00  0.6000E+01
    -10.083  0.0000E+00  0.6000E+01
    -10.006  0.0000E+00  0.6000E+01
     -9.928  0.0000E+00  0.6000E+01
     -9.851  0.0000E+00  0.6000E+01
     -9.773  0.0000E+00  0.6000E+01
     -9.695  0.0000E+00  0.6000E+01
     -9.618  0.0000E+00  0.6000E+01
     -9.540  0.0000E+00  0.6000E+01
     -9.463  0.0000E+00  0.6000E+01
     -9.385  0.0000E+00  0.6000E+01
     -9.307  0.0000E+00  0.6000E+01
     -9.230  0.0000E+00  0.6000E+01
     -9.152  0.0000E+00  0.6000E+01
     -9.075  0.0000E+00  0.6000E+01
     -8.997  0.0000E+00  0.6000E+01
     -8.919  0.0000E+00  0.6000E+01
     -8.842  0.0000E+00  0.6000E+01
     -8.764  0.0000E+00  0.6000E+01
     -8.687  0.0000E+00  0.6000E+01
     -8.609  0.0000E+00  0.6000E+01
     -8.531  0.0000E+00  0.6000E+01
     -8.454 -0.4911E-26  0.6000E+01
     -8.376 -0.2128E-23  0.6000E+01
     -8.298 -0.6816E-21  0.6000E+01
     -8.221 -0.1611E-18  0.6000E+01
     -8.143 -0.2806E-16  0.6000E+01
     -8.066 -0.3602E-14  0.6000E+01
     -7.988 -0.3292E-12  0.6000E+01
     -7.910 -0.2289E-10  0.6000E+01
     -7.833 -0.1164E-08  0.6000E+01
     -7.755 -0.4338E-07  0.6000E+01
     -7.678 -0.1182E-05  0.6000E+01
     -7.600 -0.2347E-04  0.6000E+01
     -7.522 -0.3379E-03  0.6000E+01
     -7.445 -0.3499E-02  0.6000E+01
     -7.367 -0.2574E-01  0.5998E+01
     -7.290 -0.1314E+00  0.5988E+01
     -7.212 -0.4430E+00  0.5953E+01
     -7.134 -0.8509E+00  0.5887E+01
     -7.057 -0.2243E+00  0.5870E+01
     -6.979  0.3555E+01  0.6146E+01
     -6.902  0.1059E+02  0.6968E+01
     -6.824  0.1614E+02  0.8220E+01
     -6.746  0.1486E+02  0.9373E+01
     -6.669  0.8067E+01  0.9999E+01
     -6.591  0.1834E+01  0.1014E+02
     -6.513 -0.6798E+00  0.1009E+02
     -6.436 -0.7427E+00  0.1003E+02
     -6.358 -0.3101E+00  0.1001E+02
     -6.281 -0.7931E-01  0.1000E+02
     -6.203 -0.1369E-01  0.1000E+02
     -6.125 -0.1656E-02  0.1000E+02
     -6.048 -0.1430E-03  0.1000E+02
     -5.970 -0.8910E-05  0.1000E+02
     -5.893 -0.4033E-06  0.1000E+02
     -5.815 -0.1332E-07  0.1000E+02
     -5.737 -0.3217E-09  0.1000E+02
     -5.660 -0.5699E-11  0.1000E+02
     -5.582 -0.8011E-13  0.1000E+02
     -5.505  0.0000E+00  0.1000E+02
     -5.427  0.0000E+00  0.1000E+02
     -5.349  0.0000E+00  0.1000E+02
     -5.272  0.0000E+00  0.1000E+02
     -5.194  0.0000E+00  0.1000E+02
     -5.117  0.0000E+00  0.1000E+02
     -5.039  0.0000E+00  0.1000E+02
     -4.961  0.0000E+00  0.1000E+02
     -4.884  0.0000E+00  0.1000E+02
     -4.806  0.0000E+00  0.1000E+02
     -4.729  0.0000E+00  0.1000E+02
     -4.651  0.0000E+00  0.1000E+02
     -4.573  0.0000E+00  0.1000E+02
     -4.496  0.0000E+00  0.1000E+02
     -4.418  0.0000E+00  0.1000E+02
     -4.340  0.0000E+00  0.1000E+02
     -4.263  0.0000E+00  0.1000E+02
     -4.185  0.0000E+00  0.1000E+02
     -4.108  0.0000E+00  0.1000E+02
     -4.030  0.0000E+00  0.1000E+02
     -3.952  0.0000E+00  0.1000E+02
     -3.875  0.0000E+00  0.1000E+02
     -3.797  0.0000E+00  0.1000E+02
     -3.720  0.0000E+00  0.1000E+02
     -3.642  0.0000E+00  0.1000E+02
     -3.564  0.0000E+00  0.1000E+02
     -3.487  0.0000E+00  0.1000E+02
     -3.409  0.0000E+00  0.1000E+02
     -3.332  0.0000E+00  0.1000E+02
     -3.254  0.0000E+00  0.1000E+02
     -3.176  0.0000E+00  0.1000E+02
     -3.099  0.0000E+00  0.1000E+02
     -3.021  0.0000E+00  0.1000E+02
     -2.944  0.0000E+00  0.1000E+02
     -2.866  0.0000E+00  0.1000E+02
     -2.788  0.0000E+00  0.1000E+02
     -2.711  0.0000E+00  0.1000E+02
     -2.633  0.0000E+00  0.1000E+02
     -2.555  0.0000E+00  0.1000E+02
     -2.478  0.0000E+00  0.1000E+02
     -2.400  0.0000E+00  0.1000E+02
     -2.323  0.0000E+00  0.1000E+02
     -2.245  0.0000E+00  0.1000E+02
     -2.167  0.0000E+00  0.1000E+02
     -2.090 -0.1773E-27  0.1000E+02
     -2.012 -0.8726E-25  0.1000E+02
     -1.935 -0.3173E-22  0.1000E+02
     -1.857 -0.8515E-20  0.1000E+02
     -1.779 -0.1685E-17  0.1000E+02
     -1.702 -0.2458E-15  0.1000E+02
     -1.624 -0.2498E-13  0.1000E+02
     -1.547 -0.2022E-11  0.1000E+02
     -1.469 -0.1170E-09  0.1000E+02
     -1.391 -0.4967E-08  0.1000E+02
     -1.314 -0.1543E-06  0.1000E+02
     -1.236 -0.3500E-05  0.1000E+02
     -1.159 -0.5767E-04  0.1000E+02
     -1.081 -0.6861E-03  0.1000E+02
     -1.003 -0.5834E-02  0.9999E+01
     -0.926 -0.3484E-01  0.9997E+01
     -0.848 -0.1411E+00  0.9986E+01
     -0.771 -0.3551E+00  0.9958E+01
     -0.693 -0.3820E+00  0.9929E+01
     -0.615  0.6834E+00  0.9982E+01
     -0.538  0.3479E+01  0.1025E+02
     -0.460  0.6555E+01  0.1076E+02
     -0.382  0.7360E+01  0.1133E+02
     -0.305  0.6696E+01  0.1185E+02
     -0.227  0.8748E+01  0.1253E+02
     -0.150  0.1384E+02  0.1360E+02
     -0.072  0.1605E+02  0.1485E+02
      0.006  0.1167E+02  0.1576E+02
      0.083  0.4591E+01  0.1611E+02
      0.161  0.1563E+00  0.1612E+02
      0.238 -0.8729E+00  0.1606E+02
      0.316 -0.5245E+00  0.1602E+02
      0.394 -0.1701E+00  0.1600E+02
      0.471 -0.4167E-01  0.1600E+02
      0.549 -0.4115E-01  0.1600E+02
      0.626 -0.1449E+00  0.1599E+02
      0.704 -0.3585E+00  0.1596E+02
      0.782 -0.3650E+00  0.1593E+02
      0.859  0.7850E+00  0.1599E+02
      0.937  0.3805E+01  0.1629E+02
      1.014  0.7273E+01  0.1685E+02
      1.092  0.8142E+01  0.1748E+02
      1.170  0.5523E+01  0.1791E+02
      1.247  0.1958E+01  0.1806E+02
      1.325 -0.5175E-01  0.1806E+02
      1.403 -0.4308E+00  0.1803E+02
      1.480 -0.2350E+00  0.1801E+02
      1.558 -0.7170E-01  0.1800E+02
      1.635 -0.1438E-01  0.1800E+02
      1.713 -0.1997E-02  0.1800E+02
      1.791 -0.1969E-03  0.1800E+02
      1.868 -0.1395E-04  0.1800E+02
      1.946 -0.7167E-06  0.1800E+02
      2.023 -0.2681E-07  0.1800E+02
      2.101 -0.7332E-09  0.1800E+02
      2.179 -0.1469E-10  0.1800E+02
      2.256 -0.2174E-12  0.1800E+02
      2.334  0.0000E+00  0.1800E+02
      2.411  0.0000E+00  0.1800E+02
      2.489  0.0000E+00  0.1800E+02
      2.567  0.0000E+00  0.1800E+02
      2.644  0.0000E+00  0.1800E+02
      2.722  0.0000E+00  0.1800E+02
      2.799  0.0000E+00  0.1800E+02
      2.877  0.0000E+00  0.1800E+02
      2.955  0.0000E+00  0.1800E+02
      3.032  0.0000E+00  0.1800E+02
