    4    4    1    1
  0.1280000E+03  0.8000000E-09  0.8000000E-09  0.8000000E-09  0.5000000E-15
  1.000000000000000E-004
  CAR 
 unknown system                          
   10    1    9
 
  0.0000000E+00  0.0000000E+00  0.0000000E+00  0.1000000E+01
   1      -18.250073
   2      -13.777437
   3      -11.865168
   4       -6.836957
   5       -6.836957
   6       -0.440683
   7       -0.122508
   8       -0.122508
   9        1.032278
