<?xml version="1.0" encoding="ISO-8859-1"?>
<modeling>
 <generator>
  <i name="program" type="string">vasp </i>
  <i name="version" type="string">5.2.12  </i>
  <i name="subversion" type="string">11Nov11 complex                                                      parallel </i>
  <i name="platform" type="string">LinuxIFC </i>
  <i name="date" type="string">2012 11 03 </i>
  <i name="time" type="string">02:11:09 </i>
 </generator>
 <incar>
  <i type="string" name="PREC">normal</i>
  <i name="ENCUT">    400.00000000</i>
 </incar>
 <kpoints>
  <generation param="Monkhorst-Pack">
   <v type="int" name="divisions">       1        1        1 </v>
   <v name="usershift">      0.00000000       0.00000000       0.00000000 </v>
   <v name="genvec1">      1.00000000       0.00000000       0.00000000 </v>
   <v name="genvec2">      0.00000000       1.00000000       0.00000000 </v>
   <v name="genvec3">      0.00000000       0.00000000       1.00000000 </v>
   <v name="shift">      0.00000000       0.00000000       0.00000000 </v>
  </generation>
  <varray name="kpointlist" >
   <v>       0.00000000       0.00000000       0.00000000 </v>
  </varray>
  <varray name="weights" >
   <v>       1.00000000 </v>
  </varray>
 </kpoints>
 <parameters>
  <separator name="general" >
   <i type="string" name="SYSTEM">unknown system</i>
   <i type="logical" name="LCOMPAT"> F  </i>
  </separator>
  <separator name="electronic" >
   <i type="string" name="PREC">normal</i>
   <i name="ENMAX">    400.00000000</i>
   <i name="ENAUG">    644.87300000</i>
   <i name="EDIFF">      0.00010000</i>
   <i type="int" name="IALGO">    38</i>
   <i type="int" name="IWAVPR">    10</i>
   <i type="int" name="NBANDS">     9</i>
   <i name="NELECT">     10.00000000</i>
   <i type="int" name="TURBO">     0</i>
   <i type="int" name="IRESTART">     0</i>
   <i type="int" name="NREBOOT">     0</i>
   <i type="int" name="NMIN">     0</i>
   <i name="EREF">      0.00000000</i>
   <separator name="electronic smearing" >
    <i type="int" name="ISMEAR">     1</i>
    <i name="SIGMA">      0.20000000</i>
    <i name="KSPACING">      0.50000000</i>
    <i type="logical" name="KGAMMA"> T  </i>
   </separator>
   <separator name="electronic projectors" >
    <i type="logical" name="LREAL"> F  </i>
    <v name="ROPT">      0.00000000      0.00000000</v>
    <i type="int" name="LMAXPAW">  -100</i>
    <i type="int" name="LMAXMIX">     2</i>
    <i type="logical" name="NLSPLINE"> F  </i>
   </separator>
   <separator name="electronic startup" >
    <i type="int" name="ISTART">     0</i>
    <i type="int" name="ICHARG">     2</i>
    <i type="int" name="INIWAV">     1</i>
   </separator>
   <separator name="electronic spin" >
    <i type="int" name="ISPIN">     1</i>
    <i type="logical" name="LNONCOLLINEAR"> F  </i>
    <v name="MAGMOM">      1.00000000      1.00000000      1.00000000      1.00000000</v>
    <i name="NUPDOWN">     -1.00000000</i>
    <i type="logical" name="LSORBIT"> F  </i>
    <v name="SAXIS">      0.00000000      0.00000000      1.00000000</v>
    <i type="logical" name="LSPIRAL"> F  </i>
    <v name="QSPIRAL">      0.00000000      0.00000000      0.00000000</v>
    <i type="logical" name="LZEROZ"> F  </i>
   </separator>
   <separator name="electronic exchange-correlation" >
    <i type="logical" name="LASPH"> F  </i>
    <i type="logical" name="LMETAGGA"> F  </i>
   </separator>
   <separator name="electronic convergence" >
    <i type="int" name="NELM">    60</i>
    <i type="int" name="NELMDL">    -5</i>
    <i type="int" name="NELMIN">     2</i>
    <i name="ENINI">    400.00000000</i>
    <separator name="electronic convergence detail" >
     <i type="logical" name="LDIAG"> T  </i>
     <i type="logical" name="LSUBROT"> T  </i>
     <i name="WEIMIN">      0.00000000</i>
     <i name="EBREAK">      0.00000278</i>
     <i name="DEPER">      0.30000000</i>
     <i type="int" name="NRMM">     4</i>
     <i name="TIME">      0.40000000</i>
    </separator>
   </separator>
   <separator name="electronic mixer" >
    <i name="AMIX">      0.40000000</i>
    <i name="BMIX">      1.00000000</i>
    <i name="AMIN">      0.10000000</i>
    <i name="AMIX_MAG">      1.60000000</i>
    <i name="BMIX_MAG">      1.00000000</i>
    <separator name="electronic mixer details" >
     <i type="int" name="IMIX">     4</i>
     <i type="int" name="MAXMIX">   -45</i>
     <i name="WC">    100.00000000</i>
     <i type="int" name="INIMIX">     1</i>
     <i type="int" name="MIXPRE">     1</i>
     <i type="int" name="MREMOVE">     5</i>
    </separator>
   </separator>
   <separator name="electronic dipolcorrection" >
    <i type="logical" name="LDIPOL"> F  </i>
    <i type="logical" name="LMONO"> F  </i>
    <i type="int" name="IDIPOL">     0</i>
    <i name="EPSILON">      1.00000000</i>
    <v name="DIPOL">   -100.00000000   -100.00000000   -100.00000000</v>
    <i name="EFIELD">      0.00000000</i>
   </separator>
  </separator>
  <separator name="grids" >
   <i type="int" name="NGX">    40</i>
   <i type="int" name="NGY">    40</i>
   <i type="int" name="NGZ">    40</i>
   <i type="int" name="NGXF">    80</i>
   <i type="int" name="NGYF">    80</i>
   <i type="int" name="NGZF">    80</i>
   <i type="logical" name="ADDGRID"> F  </i>
  </separator>
  <separator name="ionic" >
   <i type="int" name="NSW">     0</i>
   <i type="int" name="IBRION">    -1</i>
   <i type="int" name="ISIF">     2</i>
   <i name="PSTRESS">      0.00000000</i>
   <i name="EDIFFG">      0.00100000</i>
   <i type="int" name="NFREE">     0</i>
   <i name="POTIM">      0.50000000</i>
   <i name="SMASS">     -3.00000000</i>
   <i name="SCALEE">      1.00000000</i>
  </separator>
  <separator name="ionic md" >
   <i name="TEBEG">      0.00010000</i>
   <i name="TEEND">      0.00010000</i>
   <i type="int" name="NBLOCK">     1</i>
   <i type="int" name="KBLOCK">     1</i>
   <i type="int" name="NPACO">   256</i>
   <i name="APACO">     16.00000000</i>
  </separator>
  <separator name="symmetry" >
   <i type="int" name="ISYM">     2</i>
   <i name="SYMPREC">      0.00001000</i>
  </separator>
  <separator name="dos" >
   <i type="logical" name="LORBIT"> F  </i>
   <v name="RWIGS">     -1.00000000     -1.00000000</v>
   <i type="int" name="NEDOS">   301</i>
   <i name="EMIN">     10.00000000</i>
   <i name="EMAX">    -10.00000000</i>
   <i name="EFERMI">      0.00000000</i>
  </separator>
  <separator name="writing" >
   <i type="int" name="NWRITE">     2</i>
   <i type="logical" name="LWAVE"> T  </i>
   <i type="logical" name="LCHARG"> T  </i>
   <i type="logical" name="LPARD"> F  </i>
   <i type="logical" name="LVTOT"> F  </i>
   <i type="logical" name="LVHAR"> F  </i>
   <i type="logical" name="LELF"> F  </i>
   <i type="logical" name="LOPTICS"> F  </i>
   <v name="STM">      0.00000000      0.00000000      0.00000000      0.00000000      0.00000000      0.00000000      0.00000000</v>
  </separator>
  <separator name="performance" >
   <i type="int" name="NPAR">     1</i>
   <i type="int" name="NSIM">     4</i>
   <i type="int" name="NBLK">    -1</i>
   <i type="logical" name="LPLANE"> T  </i>
   <i type="logical" name="LSCALAPACK"> F  </i>
   <i type="logical" name="LSCAAWARE"> F  </i>
   <i type="logical" name="LSCALU"> F  </i>
   <i type="logical" name="LASYNC"> F  </i>
   <i type="logical" name="LORBITALREAL"> F  </i>
  </separator>
  <separator name="miscellaneous" >
   <i type="int" name="IDIOT">     3</i>
   <i type="logical" name="LMUSIC"> F  </i>
   <v name="POMASS">      1.00000000     12.01100000</v>
   <v name="DARWINR">      0.00000000      0.00000000</v>
   <v name="DARWINV">      1.00000000      1.00000000</v>
   <i type="logical" name="LCORR"> T  </i>
  </separator>
  <i type="logical" name="GGA_COMPAT"> T  </i>
  <i type="logical" name="LBERRY"> F  </i>
  <i type="int" name="ICORELEVEL">     0</i>
  <i type="logical" name="LDAU"> F  </i>
  <i type="int" name="I_CONSTRAINED_M">     0</i>
  <separator name="electronic exchange-correlation" >
   <i type="string" name="GGA">--</i>
   <i type="int" name="VOSKOWN">     0</i>
   <i type="logical" name="LHFCALC"> F  </i>
   <i type="string" name="PRECFOCK"></i>
   <i type="logical" name="LHFONE"> F  </i>
   <i type="logical" name="LRHFCALC"> F  </i>
   <i type="logical" name="LTHOMAS"> F  </i>
   <i type="logical" name="LMODELHF"> F  </i>
   <i name="ENCUT4O">     -1.00000000</i>
   <i type="int" name="EXXOEP">     0</i>
   <i type="int" name="FOURORBIT">     0</i>
   <i name="AEXX">      0.00000000</i>
   <i name="HFALPHA">      0.00000000</i>
   <i name="ALDAX">      1.00000000</i>
   <i name="AGGAX">      1.00000000</i>
   <i name="ALDAC">      1.00000000</i>
   <i name="AGGAC">      1.00000000</i>
   <i type="int" name="NKREDX">     1</i>
   <i type="int" name="NKREDY">     1</i>
   <i type="int" name="NKREDZ">     1</i>
   <i type="logical" name="SHIFTRED"> F  </i>
   <i type="logical" name="ODDONLY"> F  </i>
   <i type="logical" name="EVENONLY"> F  </i>
   <i type="int" name="LMAXFOCK">     0</i>
   <i type="int" name="NMAXFOCKAE">     0</i>
   <i type="logical" name="LFOCKAEDFT"> F  </i>
   <i name="HFSCREEN">      0.00000000</i>
   <i name="HFSCREENC">      0.00000000</i>
  </separator>
  <separator name="vdW DFT" >
   <i type="logical" name="LUSE_VDW"> F  </i>
   <i name="Zab_VDW">     -0.84910000</i>
   <i name="PARAM1">      0.12340000</i>
   <i name="PARAM2">      1.00000000</i>
   <i name="PARAM3">      0.00000000</i>
  </separator>
  <separator name="model GW" >
   <i type="int" name="MODEL_GW">     0</i>
   <i name="MODEL_EPS0">     76.80000000</i>
   <i name="MODEL_ALPHA">      1.00000000</i>
  </separator>
  <separator name="linear response parameters" >
   <i type="logical" name="LEPSILON"> F  </i>
   <i type="logical" name="LRPA"> F  </i>
   <i type="logical" name="LNABLA"> F  </i>
   <i type="logical" name="LVEL"> F  </i>
   <i type="int" name="KINTER">     0</i>
   <i name="CSHIFT">      0.10000000</i>
   <i name="OMEGAMAX">     -1.00000000</i>
  </separator>
  <separator name="orbital magnetization" >
   <i type="logical" name="NUCIND"> F  </i>
   <v name="MAGPOS">      0.00000000      0.00000000      0.00000000</v>
   <i type="logical" name="LNICSALL"> T  </i>
   <i type="logical" name="ORBITALMAG"> F  </i>
   <i type="logical" name="LMAGBLOCH"> F  </i>
   <i type="logical" name="LCHIMAG"> F  </i>
   <i type="logical" name="LGAUGE"> T  </i>
   <i type="int" name="MAGATOM">     0</i>
   <v name="MAGDIPOL">      0.00000000      0.00000000      0.00000000</v>
   <v name="AVECCONST">      0.00000000      0.00000000      0.00000000</v>
  </separator>
  <separator name="response functions" >
   <i type="logical" name="LADDER"> F  </i>
   <i type="logical" name="LHARTREE"> T  </i>
   <i type="int" name="IBSE">     0</i>
   <i type="logical" name="LTCTE"> F  </i>
   <i type="logical" name="LTETE"> F  </i>
   <i type="logical" name="LFXCEPS"> F  </i>
   <i type="logical" name="L2ORDER"> F  </i>
   <i type="logical" name="LUSEW"> F  </i>
   <i name="ENCUTGW">     -2.00000000</i>
   <i name="ENCUTGWSOFT">     -2.00000000</i>
   <i name="ENCUTLF">     -1.00000000</i>
   <i type="int" name="LMAXMP2">    -1</i>
   <i name="SCISSOR">      0.00000000</i>
   <i type="int" name="NOMEGA">     0</i>
   <i type="int" name="NOMEGAR">     0</i>
   <i type="int" name="NBANDSGW">    -1</i>
   <i type="int" name="NBANDSO">    -1</i>
   <i type="int" name="NBANDSV">    -1</i>
   <i name="OPTEMAX">      0.00000000</i>
   <i type="int" name="NELM">     1</i>
   <i type="int" name="DIM">     3</i>
   <i type="int" name="ANTIRES">     0</i>
   <i name="OMEGAMAX">    -30.00000000</i>
   <i name="OMEGATL">   -200.00000000</i>
   <i type="int" name="OMEGAGRID">     0</i>
   <i name="CSHIFT">     -0.10000000</i>
   <i type="logical" name="SELFENERGY"> F  </i>
   <i type="logical" name="LSPECTRAL"> F  </i>
   <i type="logical" name="ODDONLYGW"> F  </i>
   <i type="logical" name="EVENONLYGW"> F  </i>
   <i type="int" name="NKREDLFX">     1</i>
   <i type="int" name="NKREDLFY">     1</i>
   <i type="int" name="NKREDLFZ">     1</i>
   <i type="int" name="MAXMEM">  1800</i>
   <i type="int" name="TELESCOPE">     0</i>
  </separator>
 </parameters>
 <atominfo>
  <atoms>       4 </atoms>
  <types>       2 </types>
  <array name="atoms" >
   <dimension dim="1">ion</dimension>
   <field type="string">element</field>
   <field type="int">atomtype</field>
   <set>
    <rc><c>H </c><c>   1</c></rc>
    <rc><c>H </c><c>   1</c></rc>
    <rc><c>C </c><c>   2</c></rc>
    <rc><c>C </c><c>   2</c></rc>
   </set>
  </array>
  <array name="atomtypes" >
   <dimension dim="1">type</dimension>
   <field type="int">atomspertype</field>
   <field type="string">element</field>
   <field>mass</field>
   <field>valence</field>
   <field type="string">pseudopotential</field>
   <set>
    <rc><c>   2</c><c>H </c><c>      1.00000000</c><c>      1.00000000</c><c> PAW_PBE H 15Jun2001                    </c></rc>
    <rc><c>   2</c><c>C </c><c>     12.01100000</c><c>      4.00000000</c><c> PAW_PBE C 08Apr2002                    </c></rc>
   </set>
  </array>
 </atominfo>
 <structure name="initialpos" >
  <crystal>
   <varray name="basis" >
    <v>       8.00000000       0.00000000       0.00000000 </v>
    <v>       0.00000000       8.00000000       0.00000000 </v>
    <v>       0.00000000       0.00000000       8.00000000 </v>
   </varray>
   <i name="volume">    512.00000000 </i>
   <varray name="rec_basis" >
    <v>       0.12500000       0.00000000       0.00000000 </v>
    <v>       0.00000000       0.12500000       0.00000000 </v>
    <v>       0.00000000       0.00000000       0.12500000 </v>
   </varray>
  </crystal>
  <varray name="positions" >
   <v>       0.50000000       0.50000000       0.29075125 </v>
   <v>       0.50000000       0.50000000       0.70924875 </v>
   <v>       0.50000000       0.50000000       0.57601000 </v>
   <v>       0.50000000       0.50000000       0.42399000 </v>
  </varray>
 </structure>
 <calculation>
  <scstep>
   <time name="dav">    0.32    0.32</time>
   <time name="total">    1.13    1.14</time>
   <energy>
    <i name="alphaZ">      0.89086884 </i>
    <i name="ewald">    102.54077057 </i>
    <i name="hartreedc">   -317.70358761 </i>
    <i name="XCdc">     30.23698627 </i>
    <i name="pawpsdc">     77.22553761 </i>
    <i name="pawaedc">    -79.54451240 </i>
    <i name="eentropy">      0.01170169 </i>
    <i name="bandstr">    -61.31860622 </i>
    <i name="atom">    319.21171307 </i>
    <i name="e_fr_energy">     71.55087183 </i>
    <i name="e_wo_entrp">     71.53917014 </i>
    <i name="e_0_energy">     71.54697127 </i>
   </energy>
  </scstep>
  <scstep>
   <time name="dav">    0.42    0.42</time>
   <time name="total">    0.42    0.42</time>
   <energy>
    <i name="e_fr_energy">     -6.91013702 </i>
    <i name="e_wo_entrp">     -6.92173283 </i>
    <i name="e_0_energy">     -6.91400229 </i>
   </energy>
  </scstep>
  <scstep>
   <time name="dav">    0.44    0.44</time>
   <time name="total">    0.44    0.46</time>
   <energy>
    <i name="e_fr_energy">    -26.09171242 </i>
    <i name="e_wo_entrp">    -26.11571288 </i>
    <i name="e_0_energy">    -26.09971258 </i>
   </energy>
  </scstep>
  <scstep>
   <time name="dav">    0.44    0.44</time>
   <time name="total">    0.44    0.46</time>
   <energy>
    <i name="e_fr_energy">    -26.38602992 </i>
    <i name="e_wo_entrp">    -26.40922154 </i>
    <i name="e_0_energy">    -26.39376046 </i>
   </energy>
  </scstep>
  <scstep>
   <time name="dav">    0.43    0.43</time>
   <time name="total">    0.56    0.57</time>
   <energy>
    <i name="e_fr_energy">    -26.38643141 </i>
    <i name="e_wo_entrp">    -26.40962303 </i>
    <i name="e_0_energy">    -26.39416195 </i>
   </energy>
  </scstep>
  <scstep>
   <time name="dav">    0.32    0.32</time>
   <time name="total">    1.24    1.26</time>
   <energy>
    <i name="e_fr_energy">    -23.54140994 </i>
    <i name="e_wo_entrp">    -23.56460156 </i>
    <i name="e_0_energy">    -23.54914048 </i>
   </energy>
  </scstep>
  <scstep>
   <time name="dav">    0.43    0.43</time>
   <time name="total">    1.35    1.68</time>
   <energy>
    <i name="e_fr_energy">    -22.94879722 </i>
    <i name="e_wo_entrp">    -22.97198884 </i>
    <i name="e_0_energy">    -22.95652776 </i>
   </energy>
  </scstep>
  <scstep>
   <time name="dav">    0.34    0.34</time>
   <time name="total">    1.25    1.27</time>
   <energy>
    <i name="e_fr_energy">    -22.90509817 </i>
    <i name="e_wo_entrp">    -22.92828979 </i>
    <i name="e_0_energy">    -22.91282871 </i>
   </energy>
  </scstep>
  <scstep>
   <time name="dav">    0.45    0.45</time>
   <time name="total">    1.35    1.37</time>
   <energy>
    <i name="e_fr_energy">    -22.89372698 </i>
    <i name="e_wo_entrp">    -22.91691860 </i>
    <i name="e_0_energy">    -22.90145752 </i>
   </energy>
  </scstep>
  <scstep>
   <time name="dav">    0.32    0.32</time>
   <time name="total">    1.21    1.25</time>
   <energy>
    <i name="e_fr_energy">    -22.89539491 </i>
    <i name="e_wo_entrp">    -22.91858653 </i>
    <i name="e_0_energy">    -22.90312545 </i>
   </energy>
  </scstep>
  <scstep>
   <time name="dav">    0.33    0.33</time>
   <time name="total">    1.22    1.24</time>
   <energy>
    <i name="e_fr_energy">    -22.89967395 </i>
    <i name="e_wo_entrp">    -22.92286557 </i>
    <i name="e_0_energy">    -22.90740449 </i>
   </energy>
  </scstep>
  <scstep>
   <time name="dav">    0.33    0.34</time>
   <time name="total">    1.23    1.25</time>
   <energy>
    <i name="e_fr_energy">    -22.90451610 </i>
    <i name="e_wo_entrp">    -22.92770772 </i>
    <i name="e_0_energy">    -22.91224664 </i>
   </energy>
  </scstep>
  <scstep>
   <time name="dav">    0.34    0.34</time>
   <time name="total">    1.24    1.25</time>
   <energy>
    <i name="e_fr_energy">    -22.90579876 </i>
    <i name="e_wo_entrp">    -22.92899038 </i>
    <i name="e_0_energy">    -22.91352930 </i>
   </energy>
  </scstep>
  <scstep>
   <time name="dav">    0.37    0.37</time>
   <time name="total">    1.42    1.43</time>
   <energy>
    <i name="e_fr_energy">    -22.90612738 </i>
    <i name="e_wo_entrp">    -22.92931900 </i>
    <i name="e_0_energy">    -22.91385792 </i>
   </energy>
  </scstep>
  <scstep>
   <time name="dav">    0.34    0.34</time>
   <time name="total">    1.26    1.27</time>
   <energy>
    <i name="e_fr_energy">    -22.90623519 </i>
    <i name="e_wo_entrp">    -22.92942681 </i>
    <i name="e_0_energy">    -22.91396573 </i>
   </energy>
  </scstep>
  <scstep>
   <time name="dav">    0.34    0.34</time>
   <time name="total">    1.12    1.13</time>
   <energy>
    <i name="alphaZ">      0.89086884 </i>
    <i name="ewald">    102.54077057 </i>
    <i name="hartreedc">   -360.55291933 </i>
    <i name="XCdc">     32.76035271 </i>
    <i name="pawpsdc">    148.72784076 </i>
    <i name="pawaedc">   -151.37487446 </i>
    <i name="eentropy">      0.02319162 </i>
    <i name="bandstr">   -115.13318414 </i>
    <i name="atom">    319.21171307 </i>
    <i name="e_fr_energy">    -22.90624035 </i>
    <i name="e_wo_entrp">    -22.92943197 </i>
    <i name="e_0_energy">    -22.91397089 </i>
   </energy>
  </scstep>
  <parameters_embedded>
   <separator name="dft+d2" >
    <i type="logical" name="LVDW"> F  </i>
   </separator>
  </parameters_embedded>
  <structure>
   <crystal>
    <varray name="basis" >
     <v>       8.00000000       0.00000000       0.00000000 </v>
     <v>       0.00000000       8.00000000       0.00000000 </v>
     <v>       0.00000000       0.00000000       8.00000000 </v>
    </varray>
    <i name="volume">    512.00000000 </i>
    <varray name="rec_basis" >
     <v>       0.12500000       0.00000000       0.00000000 </v>
     <v>       0.00000000       0.12500000       0.00000000 </v>
     <v>       0.00000000       0.00000000       0.12500000 </v>
    </varray>
   </crystal>
   <varray name="positions" >
    <v>       0.50000000       0.50000000       0.29075125 </v>
    <v>       0.50000000       0.50000000       0.70924875 </v>
    <v>       0.50000000       0.50000000       0.57601000 </v>
    <v>       0.50000000       0.50000000       0.42399000 </v>
   </varray>
  </structure>
  <varray name="forces" >
   <v>       0.00000000       0.00000000      -0.19824021 </v>
   <v>       0.00000000       0.00000000       0.19824021 </v>
   <v>       0.00000000       0.00000000      -1.08195724 </v>
   <v>       0.00000000       0.00000000       1.08195724 </v>
  </varray>
  <varray name="stress" >
   <v>      -1.28196094       0.00000000       0.00000000 </v>
   <v>       0.00000000      -1.28196094       0.00000000 </v>
   <v>       0.00000000       0.00000000      -3.18326618 </v>
  </varray>
  <energy>
   <i name="e_fr_energy">    -22.90624035 </i>
   <i name="e_wo_entrp">    -22.91397089 </i>
   <i name="e_0_energy">      0.02319162 </i>
  </energy>
  <time name="totalsc">   19.40   20.05</time>
  <eigenvalues>
   <array>
    <dimension dim="1">band</dimension>
    <dimension dim="2">kpoint</dimension>
    <dimension dim="3">spin</dimension>
    <field>eigene</field>
    <field>occ</field>
    <set>
     <set comment="spin 1">
      <set comment="kpoint 1">
       <r>  -18.2501    1.0000 </r>
       <r>  -13.7774    1.0000 </r>
       <r>  -11.8652    1.0000 </r>
       <r>   -6.8370    1.0000 </r>
       <r>   -6.8370    1.0000 </r>
       <r>   -0.4407    0.0000 </r>
       <r>   -0.1225    0.0000 </r>
       <r>   -0.1225    0.0000 </r>
       <r>    1.0323    0.0000 </r>
      </set>
     </set>
    </set>
   </array>
  </eigenvalues>
  <separator name="orbital magnetization" >
   <v name="MAGDIPOLOUT">      0.00000000      0.00000000      0.00000000</v>
  </separator>
  <dos>
   <i name="efermi">     -6.66858075 </i>
   <total>
    <array>
     <dimension dim="1">gridpoints</dimension>
     <dimension dim="2">spin</dimension>
     <field>energy</field>
     <field>total</field>
     <field>integrated</field>
     <set>
      <set comment="spin 1">
       <r>   -20.2501     0.0000     0.0000 </r>
       <r>   -20.1725     0.0000     0.0000 </r>
       <r>   -20.0949     0.0000     0.0000 </r>
       <r>   -20.0172     0.0000     0.0000 </r>
       <r>   -19.9396     0.0000     0.0000 </r>
       <r>   -19.8620     0.0000     0.0000 </r>
       <r>   -19.7844     0.0000     0.0000 </r>
       <r>   -19.7068     0.0000     0.0000 </r>
       <r>   -19.6292     0.0000     0.0000 </r>
       <r>   -19.5516     0.0000     0.0000 </r>
       <r>   -19.4740     0.0000     0.0000 </r>
       <r>   -19.3964     0.0000     0.0000 </r>
       <r>   -19.3188     0.0000     0.0000 </r>
       <r>   -19.2412     0.0000     0.0000 </r>
       <r>   -19.1636     0.0000     0.0000 </r>
       <r>   -19.0860     0.0000     0.0000 </r>
       <r>   -19.0083     0.0000     0.0000 </r>
       <r>   -18.9307    -0.0002     0.0000 </r>
       <r>   -18.8531    -0.0020    -0.0002 </r>
       <r>   -18.7755    -0.0144    -0.0013 </r>
       <r>   -18.6979    -0.0717    -0.0069 </r>
       <r>   -18.6203    -0.2350    -0.0251 </r>
       <r>   -18.5427    -0.4308    -0.0585 </r>
       <r>   -18.4651    -0.0518    -0.0625 </r>
       <r>   -18.3875     1.9584     0.0895 </r>
       <r>   -18.3099     5.5234     0.5181 </r>
       <r>   -18.2323     8.1422     1.1500 </r>
       <r>   -18.1547     7.2733     1.7145 </r>
       <r>   -18.0771     3.8048     2.0098 </r>
       <r>   -17.9994     0.7850     2.0707 </r>
       <r>   -17.9218    -0.3650     2.0423 </r>
       <r>   -17.8442    -0.3584     2.0145 </r>
       <r>   -17.7666    -0.1444     2.0033 </r>
       <r>   -17.6890    -0.0360     2.0005 </r>
       <r>   -17.6114    -0.0061     2.0001 </r>
       <r>   -17.5338    -0.0007     2.0000 </r>
       <r>   -17.4562    -0.0001     2.0000 </r>
       <r>   -17.3786     0.0000     2.0000 </r>
       <r>   -17.3010     0.0000     2.0000 </r>
       <r>   -17.2234     0.0000     2.0000 </r>
       <r>   -17.1458     0.0000     2.0000 </r>
       <r>   -17.0682     0.0000     2.0000 </r>
       <r>   -16.9905     0.0000     2.0000 </r>
       <r>   -16.9129     0.0000     2.0000 </r>
       <r>   -16.8353     0.0000     2.0000 </r>
       <r>   -16.7577     0.0000     2.0000 </r>
       <r>   -16.6801     0.0000     2.0000 </r>
       <r>   -16.6025     0.0000     2.0000 </r>
       <r>   -16.5249     0.0000     2.0000 </r>
       <r>   -16.4473     0.0000     2.0000 </r>
       <r>   -16.3697     0.0000     2.0000 </r>
       <r>   -16.2921     0.0000     2.0000 </r>
       <r>   -16.2145     0.0000     2.0000 </r>
       <r>   -16.1369     0.0000     2.0000 </r>
       <r>   -16.0592     0.0000     2.0000 </r>
       <r>   -15.9816     0.0000     2.0000 </r>
       <r>   -15.9040     0.0000     2.0000 </r>
       <r>   -15.8264     0.0000     2.0000 </r>
       <r>   -15.7488     0.0000     2.0000 </r>
       <r>   -15.6712     0.0000     2.0000 </r>
       <r>   -15.5936     0.0000     2.0000 </r>
       <r>   -15.5160     0.0000     2.0000 </r>
       <r>   -15.4384     0.0000     2.0000 </r>
       <r>   -15.3608     0.0000     2.0000 </r>
       <r>   -15.2832     0.0000     2.0000 </r>
       <r>   -15.2056     0.0000     2.0000 </r>
       <r>   -15.1280     0.0000     2.0000 </r>
       <r>   -15.0503     0.0000     2.0000 </r>
       <r>   -14.9727     0.0000     2.0000 </r>
       <r>   -14.8951     0.0000     2.0000 </r>
       <r>   -14.8175     0.0000     2.0000 </r>
       <r>   -14.7399     0.0000     2.0000 </r>
       <r>   -14.6623     0.0000     2.0000 </r>
       <r>   -14.5847     0.0000     2.0000 </r>
       <r>   -14.5071     0.0000     2.0000 </r>
       <r>   -14.4295    -0.0005     2.0000 </r>
       <r>   -14.3519    -0.0043     1.9996 </r>
       <r>   -14.2743    -0.0272     1.9975 </r>
       <r>   -14.1967    -0.1172     1.9884 </r>
       <r>   -14.1191    -0.3198     1.9636 </r>
       <r>   -14.0414    -0.4133     1.9315 </r>
       <r>   -13.9638     0.4555     1.9669 </r>
       <r>   -13.8862     3.1768     2.2134 </r>
       <r>   -13.8086     6.7800     2.7396 </r>
       <r>   -13.7310     8.2692     3.3814 </r>
       <r>   -13.6534     6.1377     3.8577 </r>
       <r>   -13.5758     2.5024     4.0519 </r>
       <r>   -13.4982     0.1534     4.0638 </r>
       <r>   -13.4206    -0.4346     4.0301 </r>
       <r>   -13.3430    -0.2741     4.0088 </r>
       <r>   -13.2654    -0.0909     4.0018 </r>
       <r>   -13.1878    -0.0195     4.0002 </r>
       <r>   -13.1102    -0.0029     4.0000 </r>
       <r>   -13.0325    -0.0003     4.0000 </r>
       <r>   -12.9549     0.0000     4.0000 </r>
       <r>   -12.8773     0.0000     4.0000 </r>
       <r>   -12.7997     0.0000     4.0000 </r>
       <r>   -12.7221     0.0000     4.0000 </r>
       <r>   -12.6445     0.0000     4.0000 </r>
       <r>   -12.5669    -0.0001     4.0000 </r>
       <r>   -12.4893    -0.0011     3.9999 </r>
       <r>   -12.4117    -0.0087     3.9992 </r>
       <r>   -12.3341    -0.0482     3.9955 </r>
       <r>   -12.2565    -0.1784     3.9816 </r>
       <r>   -12.1789    -0.3955     3.9509 </r>
       <r>   -12.1013    -0.2734     3.9297 </r>
       <r>   -12.0236     1.2129     4.0239 </r>
       <r>   -11.9460     4.5082     4.3737 </r>
       <r>   -11.8684     7.7143     4.9724 </r>
       <r>   -11.7908     7.8750     5.5836 </r>
       <r>   -11.7132     4.8252     5.9581 </r>
       <r>   -11.6356     1.4281     6.0689 </r>
       <r>   -11.5580    -0.2170     6.0521 </r>
       <r>   -11.4804    -0.4094     6.0203 </r>
       <r>   -11.4028    -0.1951     6.0051 </r>
       <r>   -11.3252    -0.0547     6.0009 </r>
       <r>   -11.2476    -0.0102     6.0001 </r>
       <r>   -11.1700    -0.0013     6.0000 </r>
       <r>   -11.0923    -0.0001     6.0000 </r>
       <r>   -11.0147     0.0000     6.0000 </r>
       <r>   -10.9371     0.0000     6.0000 </r>
       <r>   -10.8595     0.0000     6.0000 </r>
       <r>   -10.7819     0.0000     6.0000 </r>
       <r>   -10.7043     0.0000     6.0000 </r>
       <r>   -10.6267     0.0000     6.0000 </r>
       <r>   -10.5491     0.0000     6.0000 </r>
       <r>   -10.4715     0.0000     6.0000 </r>
       <r>   -10.3939     0.0000     6.0000 </r>
       <r>   -10.3163     0.0000     6.0000 </r>
       <r>   -10.2387     0.0000     6.0000 </r>
       <r>   -10.1611     0.0000     6.0000 </r>
       <r>   -10.0834     0.0000     6.0000 </r>
       <r>   -10.0058     0.0000     6.0000 </r>
       <r>    -9.9282     0.0000     6.0000 </r>
       <r>    -9.8506     0.0000     6.0000 </r>
       <r>    -9.7730     0.0000     6.0000 </r>
       <r>    -9.6954     0.0000     6.0000 </r>
       <r>    -9.6178     0.0000     6.0000 </r>
       <r>    -9.5402     0.0000     6.0000 </r>
       <r>    -9.4626     0.0000     6.0000 </r>
       <r>    -9.3850     0.0000     6.0000 </r>
       <r>    -9.3074     0.0000     6.0000 </r>
       <r>    -9.2298     0.0000     6.0000 </r>
       <r>    -9.1522     0.0000     6.0000 </r>
       <r>    -9.0745     0.0000     6.0000 </r>
       <r>    -8.9969     0.0000     6.0000 </r>
       <r>    -8.9193     0.0000     6.0000 </r>
       <r>    -8.8417     0.0000     6.0000 </r>
       <r>    -8.7641     0.0000     6.0000 </r>
       <r>    -8.6865     0.0000     6.0000 </r>
       <r>    -8.6089     0.0000     6.0000 </r>
       <r>    -8.5313     0.0000     6.0000 </r>
       <r>    -8.4537     0.0000     6.0000 </r>
       <r>    -8.3761     0.0000     6.0000 </r>
       <r>    -8.2985     0.0000     6.0000 </r>
       <r>    -8.2209     0.0000     6.0000 </r>
       <r>    -8.1433     0.0000     6.0000 </r>
       <r>    -8.0656     0.0000     6.0000 </r>
       <r>    -7.9880     0.0000     6.0000 </r>
       <r>    -7.9104     0.0000     6.0000 </r>
       <r>    -7.8328     0.0000     6.0000 </r>
       <r>    -7.7552     0.0000     6.0000 </r>
       <r>    -7.6776     0.0000     6.0000 </r>
       <r>    -7.6000     0.0000     6.0000 </r>
       <r>    -7.5224    -0.0003     6.0000 </r>
       <r>    -7.4448    -0.0035     5.9997 </r>
       <r>    -7.3672    -0.0257     5.9977 </r>
       <r>    -7.2896    -0.1314     5.9875 </r>
       <r>    -7.2120    -0.4430     5.9531 </r>
       <r>    -7.1343    -0.8509     5.8871 </r>
       <r>    -7.0567    -0.2243     5.8697 </r>
       <r>    -6.9791     3.5547     6.1455 </r>
       <r>    -6.9015    10.5943     6.9677 </r>
       <r>    -6.8239    16.1382     8.2202 </r>
       <r>    -6.7463    14.8592     9.3734 </r>
       <r>    -6.6687     8.0673     9.9995 </r>
       <r>    -6.5911     1.8342    10.1418 </r>
       <r>    -6.5135    -0.6798    10.0891 </r>
       <r>    -6.4359    -0.7427    10.0314 </r>
       <r>    -6.3583    -0.3101    10.0074 </r>
       <r>    -6.2807    -0.0793    10.0012 </r>
       <r>    -6.2031    -0.0137    10.0001 </r>
       <r>    -6.1254    -0.0017    10.0000 </r>
       <r>    -6.0478    -0.0001    10.0000 </r>
       <r>    -5.9702     0.0000    10.0000 </r>
       <r>    -5.8926     0.0000    10.0000 </r>
       <r>    -5.8150     0.0000    10.0000 </r>
       <r>    -5.7374     0.0000    10.0000 </r>
       <r>    -5.6598     0.0000    10.0000 </r>
       <r>    -5.5822     0.0000    10.0000 </r>
       <r>    -5.5046     0.0000    10.0000 </r>
       <r>    -5.4270     0.0000    10.0000 </r>
       <r>    -5.3494     0.0000    10.0000 </r>
       <r>    -5.2718     0.0000    10.0000 </r>
       <r>    -5.1942     0.0000    10.0000 </r>
       <r>    -5.1165     0.0000    10.0000 </r>
       <r>    -5.0389     0.0000    10.0000 </r>
       <r>    -4.9613     0.0000    10.0000 </r>
       <r>    -4.8837     0.0000    10.0000 </r>
       <r>    -4.8061     0.0000    10.0000 </r>
       <r>    -4.7285     0.0000    10.0000 </r>
       <r>    -4.6509     0.0000    10.0000 </r>
       <r>    -4.5733     0.0000    10.0000 </r>
       <r>    -4.4957     0.0000    10.0000 </r>
       <r>    -4.4181     0.0000    10.0000 </r>
       <r>    -4.3405     0.0000    10.0000 </r>
       <r>    -4.2629     0.0000    10.0000 </r>
       <r>    -4.1853     0.0000    10.0000 </r>
       <r>    -4.1076     0.0000    10.0000 </r>
       <r>    -4.0300     0.0000    10.0000 </r>
       <r>    -3.9524     0.0000    10.0000 </r>
       <r>    -3.8748     0.0000    10.0000 </r>
       <r>    -3.7972     0.0000    10.0000 </r>
       <r>    -3.7196     0.0000    10.0000 </r>
       <r>    -3.6420     0.0000    10.0000 </r>
       <r>    -3.5644     0.0000    10.0000 </r>
       <r>    -3.4868     0.0000    10.0000 </r>
       <r>    -3.4092     0.0000    10.0000 </r>
       <r>    -3.3316     0.0000    10.0000 </r>
       <r>    -3.2540     0.0000    10.0000 </r>
       <r>    -3.1763     0.0000    10.0000 </r>
       <r>    -3.0987     0.0000    10.0000 </r>
       <r>    -3.0211     0.0000    10.0000 </r>
       <r>    -2.9435     0.0000    10.0000 </r>
       <r>    -2.8659     0.0000    10.0000 </r>
       <r>    -2.7883     0.0000    10.0000 </r>
       <r>    -2.7107     0.0000    10.0000 </r>
       <r>    -2.6331     0.0000    10.0000 </r>
       <r>    -2.5555     0.0000    10.0000 </r>
       <r>    -2.4779     0.0000    10.0000 </r>
       <r>    -2.4003     0.0000    10.0000 </r>
       <r>    -2.3227     0.0000    10.0000 </r>
       <r>    -2.2451     0.0000    10.0000 </r>
       <r>    -2.1674     0.0000    10.0000 </r>
       <r>    -2.0898     0.0000    10.0000 </r>
       <r>    -2.0122     0.0000    10.0000 </r>
       <r>    -1.9346     0.0000    10.0000 </r>
       <r>    -1.8570     0.0000    10.0000 </r>
       <r>    -1.7794     0.0000    10.0000 </r>
       <r>    -1.7018     0.0000    10.0000 </r>
       <r>    -1.6242     0.0000    10.0000 </r>
       <r>    -1.5466     0.0000    10.0000 </r>
       <r>    -1.4690     0.0000    10.0000 </r>
       <r>    -1.3914     0.0000    10.0000 </r>
       <r>    -1.3138     0.0000    10.0000 </r>
       <r>    -1.2362     0.0000    10.0000 </r>
       <r>    -1.1585    -0.0001    10.0000 </r>
       <r>    -1.0809    -0.0007     9.9999 </r>
       <r>    -1.0033    -0.0058     9.9995 </r>
       <r>    -0.9257    -0.0348     9.9968 </r>
       <r>    -0.8481    -0.1411     9.9858 </r>
       <r>    -0.7705    -0.3551     9.9583 </r>
       <r>    -0.6929    -0.3820     9.9286 </r>
       <r>    -0.6153     0.6834     9.9817 </r>
       <r>    -0.5377     3.4790    10.2517 </r>
       <r>    -0.4601     6.5554    10.7604 </r>
       <r>    -0.3825     7.3596    11.3316 </r>
       <r>    -0.3049     6.6957    11.8512 </r>
       <r>    -0.2273     8.7483    12.5302 </r>
       <r>    -0.1496    13.8441    13.6046 </r>
       <r>    -0.0720    16.0542    14.8505 </r>
       <r>     0.0056    11.6721    15.7563 </r>
       <r>     0.0832     4.5913    16.1127 </r>
       <r>     0.1608     0.1563    16.1248 </r>
       <r>     0.2384    -0.8729    16.0571 </r>
       <r>     0.3160    -0.5245    16.0163 </r>
       <r>     0.3936    -0.1701    16.0031 </r>
       <r>     0.4712    -0.0417    15.9999 </r>
       <r>     0.5488    -0.0411    15.9967 </r>
       <r>     0.6264    -0.1449    15.9855 </r>
       <r>     0.7040    -0.3585    15.9577 </r>
       <r>     0.7817    -0.3650    15.9293 </r>
       <r>     0.8593     0.7850    15.9902 </r>
       <r>     0.9369     3.8048    16.2855 </r>
       <r>     1.0145     7.2733    16.8500 </r>
       <r>     1.0921     8.1422    17.4819 </r>
       <r>     1.1697     5.5234    17.9105 </r>
       <r>     1.2473     1.9584    18.0625 </r>
       <r>     1.3249    -0.0518    18.0585 </r>
       <r>     1.4025    -0.4308    18.0251 </r>
       <r>     1.4801    -0.2350    18.0069 </r>
       <r>     1.5577    -0.0717    18.0013 </r>
       <r>     1.6353    -0.0144    18.0002 </r>
       <r>     1.7129    -0.0020    18.0000 </r>
       <r>     1.7906    -0.0002    18.0000 </r>
       <r>     1.8682     0.0000    18.0000 </r>
       <r>     1.9458     0.0000    18.0000 </r>
       <r>     2.0234     0.0000    18.0000 </r>
       <r>     2.1010     0.0000    18.0000 </r>
       <r>     2.1786     0.0000    18.0000 </r>
       <r>     2.2562     0.0000    18.0000 </r>
       <r>     2.3338     0.0000    18.0000 </r>
       <r>     2.4114     0.0000    18.0000 </r>
       <r>     2.4890     0.0000    18.0000 </r>
       <r>     2.5666     0.0000    18.0000 </r>
       <r>     2.6442     0.0000    18.0000 </r>
       <r>     2.7218     0.0000    18.0000 </r>
       <r>     2.7995     0.0000    18.0000 </r>
       <r>     2.8771     0.0000    18.0000 </r>
       <r>     2.9547     0.0000    18.0000 </r>
       <r>     3.0323     0.0000    18.0000 </r>
      </set>
     </set>
    </array>
   </total>
  </dos>
 </calculation>
 <structure name="finalpos" >
  <crystal>
   <varray name="basis" >
    <v>       8.00000000       0.00000000       0.00000000 </v>
    <v>       0.00000000       8.00000000       0.00000000 </v>
    <v>       0.00000000       0.00000000       8.00000000 </v>
   </varray>
   <i name="volume">    512.00000000 </i>
   <varray name="rec_basis" >
    <v>       0.12500000       0.00000000       0.00000000 </v>
    <v>       0.00000000       0.12500000       0.00000000 </v>
    <v>       0.00000000       0.00000000       0.12500000 </v>
   </varray>
  </crystal>
  <varray name="positions" >
   <v>       0.50000000       0.50000000       0.29075125 </v>
   <v>       0.50000000       0.50000000       0.70924875 </v>
   <v>       0.50000000       0.50000000       0.57601000 </v>
   <v>       0.50000000       0.50000000       0.42399000 </v>
  </varray>
 </structure>
</modeling>
