unknown system                          
           1
     8.000000    0.000000    0.000000
     0.000000    8.000000    0.000000
     0.000000    0.000000    8.000000
   H    C 
   2   2
Direct configuration=     1
   0.50000000  0.50000000  0.29075125
   0.50000000  0.50000000  0.70924875
   0.50000000  0.50000000  0.57601000
   0.50000000  0.50000000  0.42399000
