   8   8   0   0
  0.6400000E+02  0.8000000E-09  0.8000000E-09  0.8000000E-09  0.5000000E-15
  1.000000000000000E-004
  CAR 
 unknown system                          
      3.51540904    -20.11244543  301     -6.64441456      1.00000000
    -20.112  0.0000E+00  0.0000E+00
    -20.034  0.0000E+00  0.0000E+00
    -19.955  0.0000E+00  0.0000E+00
    -19.876  0.0000E+00  0.0000E+00
    -19.797  0.0000E+00  0.0000E+00
    -19.719  0.0000E+00  0.0000E+00
    -19.640  0.0000E+00  0.0000E+00
    -19.561  0.0000E+00  0.0000E+00
    -19.482  0.0000E+00  0.0000E+00
    -19.404  0.0000E+00  0.0000E+00
    -19.325  0.0000E+00  0.0000E+00
    -19.246  0.1410E-14  0.1110E-15
    -19.167  0.1091E-12  0.8704E-14
    -19.089  0.6388E-11  0.5118E-12
    -19.010  0.2753E-09  0.2219E-10
    -18.931  0.8739E-08  0.7105E-09
    -18.852  0.2044E-06  0.1681E-07
    -18.774  0.3526E-05  0.2945E-06
    -18.695  0.4485E-04  0.3827E-05
    -18.616  0.4209E-03  0.3698E-04
    -18.537  0.2915E-02  0.2666E-03
    -18.458  0.1491E-01  0.1441E-02
    -18.380  0.5631E-01  0.5875E-02
    -18.301  0.1571E+00  0.1825E-01
    -18.222  0.3239E+00  0.4376E-01
    -18.143  0.4936E+00  0.8264E-01
    -18.065  0.5560E+00  0.1264E+00
    -17.986  0.4629E+00  0.1629E+00
    -17.907  0.2849E+00  0.1853E+00
    -17.828  0.1296E+00  0.1955E+00
    -17.750  0.4354E-01  0.1990E+00
    -17.671  0.1081E-01  0.1998E+00
    -17.592  0.1982E-02  0.2000E+00
    -17.513  0.2683E-03  0.2000E+00
    -17.435  0.2680E-04  0.2000E+00
    -17.356  0.1975E-05  0.2000E+00
    -17.277  0.1073E-06  0.2000E+00
    -17.198  0.4300E-08  0.2000E+00
    -17.120  0.1269E-09  0.2000E+00
    -17.041  0.2761E-11  0.2000E+00
    -16.962  0.4398E-13  0.2000E+00
    -16.883  0.5639E-15  0.2000E+00
    -16.805  0.0000E+00  0.2000E+00
    -16.726  0.0000E+00  0.2000E+00
    -16.647  0.0000E+00  0.2000E+00
    -16.568  0.0000E+00  0.2000E+00
    -16.490  0.0000E+00  0.2000E+00
    -16.411  0.0000E+00  0.2000E+00
    -16.332  0.0000E+00  0.2000E+00
    -16.253  0.0000E+00  0.2000E+00
    -16.174  0.0000E+00  0.2000E+00
    -16.096  0.0000E+00  0.2000E+00
    -16.017  0.0000E+00  0.2000E+00
    -15.938  0.0000E+00  0.2000E+00
    -15.859  0.0000E+00  0.2000E+00
    -15.781  0.0000E+00  0.2000E+00
    -15.702  0.1410E-15  0.2000E+00
    -15.623  0.1100E-13  0.2000E+00
    -15.544  0.7549E-12  0.2000E+00
    -15.466  0.3830E-10  0.2000E+00
    -15.387  0.1432E-08  0.2000E+00
    -15.308  0.3942E-07  0.2000E+00
    -15.229  0.8001E-06  0.2000E+00
    -15.151  0.1197E-04  0.2000E+00
    -15.072  0.1322E-03  0.2000E+00
    -14.993  0.1077E-02  0.2001E+00
    -14.914  0.6475E-02  0.2006E+00
    -14.836  0.2875E-01  0.2029E+00
    -14.757  0.9430E-01  0.2103E+00
    -14.678  0.2285E+00  0.2283E+00
    -14.599  0.4093E+00  0.2605E+00
    -14.521  0.5418E+00  0.3032E+00
    -14.442  0.5301E+00  0.3450E+00
    -14.363  0.3834E+00  0.3751E+00
    -14.284  0.2049E+00  0.3913E+00
    -14.205  0.8096E-01  0.3977E+00
    -14.127  0.2363E-01  0.3995E+00
    -14.048  0.5094E-02  0.3999E+00
    -13.969  0.8109E-03  0.4000E+00
    -13.890  0.9528E-04  0.4000E+00
    -13.812  0.8261E-05  0.4000E+00
    -13.733  0.5283E-06  0.4000E+00
    -13.654  0.2491E-07  0.4000E+00
    -13.575  0.8656E-09  0.4000E+00
    -13.497  0.2216E-10  0.4000E+00
    -13.418  0.4178E-12  0.4000E+00
    -13.339  0.5920E-14  0.4000E+00
    -13.260  0.0000E+00  0.4000E+00
    -13.182  0.0000E+00  0.4000E+00
    -13.103  0.0000E+00  0.4000E+00
    -13.024  0.0000E+00  0.4000E+00
    -12.945  0.0000E+00  0.4000E+00
    -12.867  0.0000E+00  0.4000E+00
    -12.788  0.0000E+00  0.4000E+00
    -12.709  0.0000E+00  0.4000E+00
    -12.630  0.0000E+00  0.4000E+00
    -12.552  0.0000E+00  0.4000E+00
    -12.473  0.0000E+00  0.4000E+00
    -12.394  0.0000E+00  0.4000E+00
    -12.315  0.0000E+00  0.4000E+00
    -12.236  0.0000E+00  0.4000E+00
    -12.158  0.0000E+00  0.4000E+00
    -12.079  0.0000E+00  0.4000E+00
    -12.000  0.0000E+00  0.4000E+00
    -11.921  0.0000E+00  0.4000E+00
    -11.843  0.0000E+00  0.4000E+00
    -11.764  0.0000E+00  0.4000E+00
    -11.685  0.0000E+00  0.4000E+00
    -11.606  0.0000E+00  0.4000E+00
    -11.528  0.0000E+00  0.4000E+00
    -11.449  0.0000E+00  0.4000E+00
    -11.370  0.0000E+00  0.4000E+00
    -11.291  0.0000E+00  0.4000E+00
    -11.213  0.0000E+00  0.4000E+00
    -11.134  0.1128E-13  0.4000E+00
    -11.055  0.8048E-12  0.4000E+00
    -10.976  0.4280E-10  0.4000E+00
    -10.898  0.1676E-08  0.4000E+00
    -10.819  0.4837E-07  0.4000E+00
    -10.740  0.1029E-05  0.4000E+00
    -10.661  0.1613E-04  0.4000E+00
    -10.583  0.1866E-03  0.4000E+00
    -10.504  0.1592E-02  0.4001E+00
    -10.425  0.1003E-01  0.4009E+00
    -10.346  0.4665E-01  0.4046E+00
    -10.268  0.1603E+00  0.4172E+00
    -10.189  0.4069E+00  0.4493E+00
    -10.110  0.7634E+00  0.5094E+00
    -10.031  0.1058E+01  0.5928E+00
     -9.952  0.1085E+01  0.6782E+00
     -9.874  0.8218E+00  0.7429E+00
     -9.795  0.4602E+00  0.7792E+00
     -9.716  0.1904E+00  0.7942E+00
     -9.637  0.5822E-01  0.7988E+00
     -9.559  0.1315E-01  0.7998E+00
     -9.480  0.2193E-02  0.8000E+00
     -9.401  0.2700E-03  0.8000E+00
     -9.322  0.2453E-04  0.8000E+00
     -9.244  0.1653E-05  0.8000E+00
     -9.165  0.2957E-06  0.8000E+00
     -9.086  0.3685E-05  0.8000E+00
     -9.007  0.4660E-04  0.8000E+00
     -8.929  0.4352E-03  0.8000E+00
     -8.850  0.3000E-02  0.8003E+00
     -8.771  0.1527E-01  0.8015E+00
     -8.692  0.5738E-01  0.8060E+00
     -8.614  0.1593E+00  0.8185E+00
     -8.535  0.3269E+00  0.8443E+00
     -8.456  0.4958E+00  0.8833E+00
     -8.377  0.5557E+00  0.9271E+00
     -8.299  0.4605E+00  0.9634E+00
     -8.220  0.2820E+00  0.9856E+00
     -8.141  0.1282E+00  0.9957E+00
     -8.062  0.4673E-01  0.9994E+00
     -7.983  0.3256E-01  0.1002E+01
     -7.905  0.9030E-01  0.1009E+01
     -7.826  0.2623E+00  0.1030E+01
     -7.747  0.5741E+00  0.1075E+01
     -7.668  0.9295E+00  0.1148E+01
     -7.590  0.1112E+01  0.1236E+01
     -7.511  0.9841E+00  0.1313E+01
     -7.432  0.6435E+00  0.1364E+01
     -7.353  0.3110E+00  0.1388E+01
     -7.275  0.1111E+00  0.1397E+01
     -7.196  0.2930E-01  0.1399E+01
     -7.117  0.5710E-02  0.1400E+01
     -7.038  0.8215E-03  0.1400E+01
     -6.960  0.8723E-04  0.1400E+01
     -6.881  0.6833E-05  0.1400E+01
     -6.802  0.3948E-06  0.1400E+01
     -6.723  0.1682E-07  0.1400E+01
     -6.645  0.5279E-09  0.1400E+01
     -6.566  0.1221E-10  0.1400E+01
     -6.487  0.2081E-12  0.1400E+01
     -6.408  0.2537E-14  0.1400E+01
     -6.330  0.0000E+00  0.1400E+01
     -6.251  0.0000E+00  0.1400E+01
     -6.172  0.0000E+00  0.1400E+01
     -6.093  0.0000E+00  0.1400E+01
     -6.014  0.0000E+00  0.1400E+01
     -5.936  0.0000E+00  0.1400E+01
     -5.857  0.0000E+00  0.1400E+01
     -5.778  0.0000E+00  0.1400E+01
     -5.699  0.0000E+00  0.1400E+01
     -5.621  0.0000E+00  0.1400E+01
     -5.542  0.0000E+00  0.1400E+01
     -5.463  0.0000E+00  0.1400E+01
     -5.384  0.0000E+00  0.1400E+01
     -5.306  0.0000E+00  0.1400E+01
     -5.227  0.0000E+00  0.1400E+01
     -5.148  0.0000E+00  0.1400E+01
     -5.069  0.0000E+00  0.1400E+01
     -4.991  0.0000E+00  0.1400E+01
     -4.912  0.0000E+00  0.1400E+01
     -4.833  0.0000E+00  0.1400E+01
     -4.754  0.0000E+00  0.1400E+01
     -4.676  0.0000E+00  0.1400E+01
     -4.597  0.0000E+00  0.1400E+01
     -4.518  0.0000E+00  0.1400E+01
     -4.439  0.0000E+00  0.1400E+01
     -4.361  0.0000E+00  0.1400E+01
     -4.282  0.0000E+00  0.1400E+01
     -4.203  0.0000E+00  0.1400E+01
     -4.124  0.0000E+00  0.1400E+01
     -4.046  0.0000E+00  0.1400E+01
     -3.967  0.0000E+00  0.1400E+01
     -3.888  0.0000E+00  0.1400E+01
     -3.809  0.0000E+00  0.1400E+01
     -3.730  0.0000E+00  0.1400E+01
     -3.652  0.0000E+00  0.1400E+01
     -3.573  0.0000E+00  0.1400E+01
     -3.494  0.0000E+00  0.1400E+01
     -3.415  0.0000E+00  0.1400E+01
     -3.337  0.0000E+00  0.1400E+01
     -3.258  0.0000E+00  0.1400E+01
     -3.179  0.0000E+00  0.1400E+01
     -3.100  0.0000E+00  0.1400E+01
     -3.022  0.0000E+00  0.1400E+01
     -2.943  0.0000E+00  0.1400E+01
     -2.864  0.0000E+00  0.1400E+01
     -2.785  0.0000E+00  0.1400E+01
     -2.707  0.0000E+00  0.1400E+01
     -2.628  0.0000E+00  0.1400E+01
     -2.549  0.0000E+00  0.1400E+01
     -2.470  0.0000E+00  0.1400E+01
     -2.392  0.0000E+00  0.1400E+01
     -2.313  0.0000E+00  0.1400E+01
     -2.234  0.0000E+00  0.1400E+01
     -2.155  0.0000E+00  0.1400E+01
     -2.077  0.0000E+00  0.1400E+01
     -1.998  0.0000E+00  0.1400E+01
     -1.919  0.0000E+00  0.1400E+01
     -1.840  0.0000E+00  0.1400E+01
     -1.761  0.1410E-15  0.1400E+01
     -1.683  0.1424E-13  0.1400E+01
     -1.604  0.9602E-12  0.1400E+01
     -1.525  0.4785E-10  0.1400E+01
     -1.446  0.1756E-08  0.1400E+01
     -1.368  0.4750E-07  0.1400E+01
     -1.289  0.9468E-06  0.1400E+01
     -1.210  0.1392E-04  0.1400E+01
     -1.131  0.1509E-03  0.1400E+01
     -1.053  0.1207E-02  0.1400E+01
     -0.974  0.7131E-02  0.1401E+01
     -0.895  0.3110E-01  0.1403E+01
     -0.816  0.1002E+00  0.1411E+01
     -0.738  0.2385E+00  0.1430E+01
     -0.659  0.4196E+00  0.1463E+01
     -0.580  0.5457E+00  0.1506E+01
     -0.501  0.5244E+00  0.1547E+01
     -0.423  0.3726E+00  0.1576E+01
     -0.344  0.1956E+00  0.1592E+01
     -0.265  0.7591E-01  0.1598E+01
     -0.186  0.2176E-01  0.1600E+01
     -0.108  0.4608E-02  0.1600E+01
     -0.029  0.7205E-03  0.1600E+01
      0.050  0.8315E-04  0.1600E+01
      0.129  0.7081E-05  0.1600E+01
      0.208  0.4448E-06  0.1600E+01
      0.286  0.2060E-07  0.1600E+01
      0.365  0.7106E-09  0.1600E+01
      0.444  0.3556E-09  0.1600E+01
      0.523  0.1102E-07  0.1600E+01
      0.601  0.2664E-06  0.1600E+01
      0.680  0.4776E-05  0.1600E+01
      0.759  0.6360E-04  0.1600E+01
      0.838  0.6302E-03  0.1600E+01
      0.916  0.4654E-02  0.1600E+01
      0.995  0.2568E-01  0.1602E+01
      1.074  0.1061E+00  0.1611E+01
      1.153  0.3297E+00  0.1637E+01
      1.231  0.7738E+00  0.1698E+01
      1.310  0.1381E+01  0.1806E+01
      1.389  0.1890E+01  0.1955E+01
      1.468  0.2005E+01  0.2113E+01
      1.546  0.1664E+01  0.2244E+01
      1.625  0.1090E+01  0.2330E+01
      1.704  0.5635E+00  0.2375E+01
      1.783  0.2290E+00  0.2393E+01
      1.861  0.7241E-01  0.2398E+01
      1.940  0.1759E-01  0.2400E+01
      2.019  0.3249E-02  0.2400E+01
      2.098  0.4517E-03  0.2400E+01
      2.176  0.4696E-04  0.2400E+01
      2.255  0.3633E-05  0.2400E+01
      2.334  0.2085E-06  0.2400E+01
      2.413  0.8851E-08  0.2400E+01
      2.492  0.2776E-09  0.2400E+01
      2.570  0.6423E-11  0.2400E+01
      2.649  0.1094E-12  0.2400E+01
      2.728  0.1410E-14  0.2400E+01
      2.807  0.0000E+00  0.2400E+01
      2.885  0.0000E+00  0.2400E+01
      2.964  0.0000E+00  0.2400E+01
      3.043  0.0000E+00  0.2400E+01
      3.122  0.0000E+00  0.2400E+01
      3.200  0.0000E+00  0.2400E+01
      3.279  0.0000E+00  0.2400E+01
      3.358  0.0000E+00  0.2400E+01
      3.437  0.0000E+00  0.2400E+01
      3.515  0.0000E+00  0.2400E+01
