    8    8   10    1
  0.6400000E+02  0.8000000E-09  0.8000000E-09  0.8000000E-09  0.5000000E-15
  1.000000000000000E-004
  CAR 
 unknown system                          
   14    1   12
 
  0.0000000E+00  0.0000000E+00  0.0000000E+00  0.1000000E+01
   1      -18.112445
   2      -14.526196
   3      -10.025377
   4      -10.024261
   5       -8.426289
   6       -7.622302
   7       -7.620943
   8       -0.590417
   9        1.340393
  10        1.380531
  11        1.412555
  12        1.515409
