       N       E                     dE             d eps       ncg     rms          rms(c)
DAV:   1     0.642175979999E+02    0.64218E+02   -0.27116E+03    24   0.446E+02
DAV:   2    -0.285750312836E+02   -0.92793E+02   -0.90144E+02    40   0.153E+02
DAV:   3    -0.447436605520E+02   -0.16169E+02   -0.16146E+02    28   0.672E+01
DAV:   4    -0.455287296380E+02   -0.78507E+00   -0.78479E+00    32   0.162E+01
DAV:   5    -0.455516883419E+02   -0.22959E-01   -0.22935E-01    32   0.257E+00    0.102E+01
DAV:   6    -0.414148356499E+02    0.41369E+01   -0.74383E+00    28   0.156E+01    0.474E+00
DAV:   7    -0.405304396457E+02    0.88440E+00   -0.25979E+00    28   0.842E+00    0.225E+00
DAV:   8    -0.403270893744E+02    0.20335E+00   -0.37327E-01    24   0.399E+00    0.575E-01
DAV:   9    -0.403122804646E+02    0.14809E-01   -0.44223E-02    32   0.125E+00    0.293E-01
DAV:  10    -0.403208969420E+02   -0.86165E-02   -0.85763E-02    32   0.154E+00    0.347E-01
DAV:  11    -0.403171375743E+02    0.37594E-02   -0.15610E-02    32   0.710E-01    0.908E-02
DAV:  12    -0.403236468381E+02   -0.65093E-02   -0.19459E-03    24   0.303E-01    0.501E-02
DAV:  13    -0.403263227050E+02   -0.26759E-02   -0.10463E-03    32   0.166E-01    0.295E-02
DAV:  14    -0.403277090106E+02   -0.13863E-02   -0.26347E-04    32   0.867E-02    0.216E-02
DAV:  15    -0.403278770252E+02   -0.16801E-03   -0.89800E-05    32   0.591E-02    0.793E-03
DAV:  16    -0.403280040364E+02   -0.12701E-03   -0.18397E-05    28   0.248E-02    0.211E-03
DAV:  17    -0.403280146949E+02   -0.10659E-04   -0.11554E-06    32   0.616E-03
   1 F= -.40328015E+02 E0= -.40328015E+02  d E =-.403280E+02
       N       E                     dE             d eps       ncg     rms          rms(c)
DAV:   1    -0.403297693951E+02   -0.17654E-02   -0.23631E+00    28   0.124E+01    0.603E-01
DAV:   2    -0.403228904699E+02    0.68789E-02   -0.37822E-02    24   0.131E+00    0.314E-01
DAV:   3    -0.403208913536E+02    0.19991E-02   -0.13901E-02    28   0.657E-01    0.859E-02
DAV:   4    -0.403208447957E+02    0.46558E-04   -0.13902E-03    24   0.210E-01    0.497E-02
DAV:   5    -0.403208630230E+02   -0.18227E-04   -0.20652E-04    32   0.101E-01
   2 F= -.40320863E+02 E0= -.40320863E+02  d E =0.715167E-02
       N       E                     dE             d eps       ncg     rms          rms(c)
DAV:   1    -0.403434219665E+02   -0.22577E-01   -0.72764E-01    28   0.691E+00    0.323E-01
DAV:   2    -0.403416558199E+02    0.17661E-02   -0.11595E-02    24   0.725E-01    0.176E-01
DAV:   3    -0.403410921489E+02    0.56367E-03   -0.50990E-03    28   0.391E-01    0.521E-02
DAV:   4    -0.403410283906E+02    0.63758E-04   -0.55162E-04    28   0.129E-01
   3 F= -.40341028E+02 E0= -.40341028E+02  d E =-.130137E-01
       N       E                     dE             d eps       ncg     rms          rms(c)
DAV:   1    -0.403459487102E+02   -0.48566E-02   -0.10492E+00    24   0.803E+00    0.268E-01
DAV:   2    -0.403439951974E+02    0.19535E-02   -0.87269E-03    24   0.764E-01    0.147E-01
DAV:   3    -0.403438053191E+02    0.18988E-03   -0.86979E-03    28   0.533E-01    0.758E-02
DAV:   4    -0.403435867442E+02    0.21857E-03   -0.10009E-03    28   0.183E-01    0.296E-02
DAV:   5    -0.403436133893E+02   -0.26645E-04   -0.48306E-05    24   0.523E-02
   4 F= -.40343613E+02 E0= -.40343613E+02  d E =-.258500E-02
       N       E                     dE             d eps       ncg     rms          rms(c)
DAV:   1    -0.403457791322E+02   -0.21924E-02   -0.15709E-01    24   0.312E+00    0.102E-01
DAV:   2    -0.403454921421E+02    0.28699E-03   -0.12543E-03    24   0.290E-01    0.560E-02
DAV:   3    -0.403454706216E+02    0.21521E-04   -0.12795E-03    28   0.205E-01    0.288E-02
DAV:   4    -0.403454390302E+02    0.31591E-04   -0.13777E-04    32   0.688E-02
   5 F= -.40345439E+02 E0= -.40345439E+02  d E =-.441064E-02
