 vasp.5.2.12 11Nov11 complex                                                    
  
 executed on             LinuxIFC date 2012.11.03  00:25:02
 running on    1 nodes
 distr:  one band on    1 nodes,    1 groups


--------------------------------------------------------------------------------------------------------


 INCAR:
 POTCAR:   PAW_PBE H 15Jun2001                    
 POTCAR:   PAW_PBE C 08Apr2002                    
 POTCAR:   PAW_PBE H 15Jun2001                    
   VRHFIN =H: ultrasoft test                                                    
   LEXCH  = PE                                                                  
   EATOM  =    12.4884 eV,     .9179 Ry                                         
                                                                                
   TITEL  = PAW_PBE H 15Jun2001                                                 
   LULTRA =        F    use ultrasoft PP ?                                      
   IUNSCR =        0    unscreen: 0-lin 1-nonlin 2-no                           
   RPACOR =     .000    partial core radius                                     
   POMASS =    1.000; ZVAL   =    1.000    mass and valenz                      
   RCORE  =    1.100    outmost cutoff radius                                   
   RWIGS  =     .700; RWIGS  =     .370    wigner-seitz radius (au A)           
   ENMAX  =  250.000; ENMIN  =  200.000 eV                                      
   RCLOC  =     .701    cutoff for local pot                                    
   LCOR   =        T    correct aug charges                                     
   LPAW   =        T    paw PP                                                  
   EAUG   =  400.000                                                            
   RMAX   =    2.174    core radius for proj-oper                               
   RAUG   =    1.200    factor for augmentation sphere                          
   RDEP   =    1.112    radius for radial grids                                 
   QCUT   =   -5.749; QGAM   =   11.498    optimization parameters              
                                                                                
   Description                                                                  
     l     E      TYP  RCUT    TYP  RCUT                                        
     0   .000     23  1.100                                                     
     0   .500     23  1.100                                                     
     1  -.300     23  1.100                                                     
  local pseudopotential read in
  atomic valenz-charges read in
  non local Contribution for L=           0  read in
    real space projection operators read in
  non local Contribution for L=           0  read in
    real space projection operators read in
  non local Contribution for L=           1  read in
    real space projection operators read in
    PAW grid and wavefunctions read in
 
   number of l-projection  operators is LMAX  =           3
   number of lm-projection operators is LMMAX =           5
 
 POTCAR:   PAW_PBE C 08Apr2002                    
   VRHFIN =C: s2p2                                                              
   LEXCH  = PE                                                                  
   EATOM  =   147.1560 eV,   10.8157 Ry                                         
                                                                                
   TITEL  = PAW_PBE C 08Apr2002                                                 
   LULTRA =        F    use ultrasoft PP ?                                      
   IUNSCR =        0    unscreen: 0-lin 1-nonlin 2-no                           
   RPACOR =     .000    partial core radius                                     
   POMASS =   12.011; ZVAL   =    4.000    mass and valenz                      
   RCORE  =    1.500    outmost cutoff radius                                   
   RWIGS  =    1.630; RWIGS  =     .863    wigner-seitz radius (au A)           
   ENMAX  =  400.000; ENMIN  =  300.000 eV                                      
   ICORE  =        2    local potential                                         
   LCOR   =        T    correct aug charges                                     
   LPAW   =        T    paw PP                                                  
   EAUG   =  644.873                                                            
   DEXC   =     .000                                                            
   RMAX   =    2.266    core radius for proj-oper                               
   RAUG   =    1.300    factor for augmentation sphere                          
   RDEP   =    1.501    radius for radial grids                                 
   RDEPT  =    1.300    core radius for aug-charge                              
   QCUT   =   -5.516; QGAM   =   11.032    optimization parameters              
                                                                                
   Description                                                                  
     l     E      TYP  RCUT    TYP  RCUT                                        
     0   .000     23  1.200                                                     
     0   .000     23  1.200                                                     
     1   .000     23  1.500                                                     
     1  2.500     23  1.500                                                     
     2   .000      7  1.500                                                     
  local pseudopotential read in
  atomic valenz-charges read in
  non local Contribution for L=           0  read in
    real space projection operators read in
  non local Contribution for L=           0  read in
    real space projection operators read in
  non local Contribution for L=           1  read in
    real space projection operators read in
  non local Contribution for L=           1  read in
    real space projection operators read in
    PAW grid and wavefunctions read in
 
   number of l-projection  operators is LMAX  =           4
   number of lm-projection operators is LMMAX =           8
 
 PAW_PBE H 15Jun2001                    :
 energy of atom  1       EATOM=  -12.4884
 kinetic energy error for atom=    0.0426 (will be added to EATOM!!)
 PAW_PBE C 08Apr2002                    :
 energy of atom  2       EATOM= -147.1560
 kinetic energy error for atom=    0.2561 (will be added to EATOM!!)
 
 
 POSCAR:  H  C                                   
  positions in cartesian coordinates
  No initial velocities read in
 exchange correlation table for  LEXCH =        8
   RHO(1)=    0.500       N(1)  =     2000
   RHO(2)=  100.500       N(2)  =     4000
 


--------------------------------------------------------------------------------------------------------


 ion  position               nearest neighbor table
   1  0.000  0.127  0.145-   7 1.09
   2  0.890  0.936  0.145-   7 1.09
   3  0.110  0.936  0.145-   7 1.09
   4  0.000  0.873  0.855-   8 1.09
   5  0.890  0.064  0.855-   8 1.09
   6  0.110  0.064  0.855-   8 1.09
   7  0.000  0.000  0.095-   1 1.09   2 1.09   3 1.09   8 1.52
   8  0.000  0.000  0.905-   4 1.09   5 1.09   6 1.09   7 1.52
 
  LATTYP: Found a simple cubic cell.
 ALAT       =     8.0000000000
  
  Lattice vectors:
  
 A1 = (   8.0000000000,   0.0000000000,   0.0000000000)
 A2 = (   0.0000000000,   8.0000000000,   0.0000000000)
 A3 = (   0.0000000000,   0.0000000000,   8.0000000000)
 Subroutine PRICEL returns:
 Original cell was already a primitive cell.
 

Analysis of symmetry for initial positions (statically):

 Routine SETGRP: Setting up the symmetry group for a 
 simple cubic supercell.


 Subroutine GETGRP returns: Found  4 space group operations
 (whereof  4 operations were pure point group operations)
 out of a pool of 48 trial point group operations.


The static configuration has the point symmetry C_2h.

Analysis of symmetry for dynamics (positions and initial velocities):

 Subroutine DYNSYM returns: Found  4 space group operations
 (whereof  4 operations were pure point group operations)
 out of a pool of  4 trial space group operations
 (whereof  4 operations were pure point group operations)
 and found also     1 'primitive' translations


The dynamic configuration has the point symmetry C_2h.
 
 
 KPOINTS: KPOINTS created by Atomic Simulation Env

Automatic generation of k-mesh.
 
 Subroutine IBZKPT returns following result:
 ===========================================
 
 Found      1 irreducible k-points:
 
 Following reciprocal coordinates:
            Coordinates               Weight
  0.000000  0.000000  0.000000      1.000000
 
 Following cartesian coordinates:
            Coordinates               Weight
  0.000000  0.000000  0.000000      1.000000
 


--------------------------------------------------------------------------------------------------------




 Dimension of arrays:
   k-points           NKPTS =      1   k-points in BZ     NKDIM =      1   number of bands    NBANDS=     12
   number of dos      NEDOS =    301   number of ions     NIONS =      8
   non local maximal  LDIM  =      4   non local SUM 2l+1 LMDIM =      8
   total plane-waves  NPLWV =  46656
   max r-space proj   IRMAX =      1   max aug-charges    IRDMAX=   1275
   dimension x,y,z NGX =    36 NGY =   36 NGZ =   36
   dimension x,y,z NGXF=    72 NGYF=   72 NGZF=   72
   support grid    NGXF=    72 NGYF=   72 NGZF=   72
   ions per type =               6   2
 NGX,Y,Z   is equivalent  to a cutoff of   7.48,  7.48,  7.48 a.u.
 NGXF,Y,Z  is equivalent  to a cutoff of  14.96, 14.96, 14.96 a.u.


 I would recommend the setting:
   dimension x,y,z NGX =    34 NGY =   34 NGZ =   34
 SYSTEM =  unknown system                          
 POSCAR =   H  C                                   

 Startparameter for this run:
   NWRITE =      2    write-flag & timer
   PREC   = normal    normal or accurate (medium, high low for compatibility)
   ISTART =      0    job   : 0-new  1-cont  2-samecut
   ICHARG =      2    charge: 1-file 2-atom 10-const
   ISPIN  =      1    spin polarized calculation?
   LNONCOLLINEAR =      F non collinear calculations
   LSORBIT =      F    spin-orbit coupling
   INIWAV =      1    electr: 0-lowe 1-rand  2-diag
   LASPH  =      F    aspherical Exc in radial PAW
   METAGGA=      F    non-selfconsistent MetaGGA calc.

 Electronic Relaxation 1
   ENCUT  =  300.0 eV  22.05 Ry    4.70 a.u.  11.30 11.30 11.30*2*pi/ulx,y,z
   ENINI  =  300.0     initial cutoff
   ENAUG  =  644.9 eV  augmentation charge cutoff
   NELM   =     60;   NELMIN=  2; NELMDL= -5     # of ELM steps 
   EDIFF  = 0.1E-03   stopping-criterion for ELM
   LREAL  =      F    real-space projection
   NLSPLINE    = F    spline interpolate recip. space projectors
   LCOMPAT=      F    compatible to vasp.4.4
   GGA_COMPAT  = T    GGA compatible to vasp.4.4-vasp.4.6
   LMAXPAW     = -100 max onsite density
   LMAXMIX     =    2 max onsite mixed and CHGCAR
   VOSKOWN=      0    Vosko Wilk Nusair interpolation
   ROPT   =    0.00000   0.00000
 Ionic relaxation
   EDIFFG = 0.1E-02   stopping-criterion for IOM
   NSW    =     10    number of steps for IOM
   NBLOCK =      1;   KBLOCK =     10    inner block; outer block 
   IBRION =      2    ionic relax: 0-MD 1-quasi-New 2-CG
   NFREE  =      1    steps in history (QN), initial steepest desc. (CG)
   ISIF   =      2    stress and relaxation
   IWAVPR =     11    prediction:  0-non 1-charg 2-wave 3-comb
   ISYM   =      2    0-nonsym 1-usesym 2-fastsym
   LCORR  =      T    Harris-Foulkes like correction to forces

   POTIM  = 0.5000    time-step for ionic-motion
   TEIN   =    0.0    initial temperature
   TEBEG  =    0.0;   TEEND  =   0.0 temperature during run
   SMASS  =  -3.00    Nose mass-parameter (am)
   estimated Nose-frequenzy (Omega)   =  0.10E-29 period in steps =****** mass=  -0.146E-26a.u.
   SCALEE = 1.0000    scale energy and forces
   NPACO  =    256;   APACO  = 16.0  distance and # of slots for P.C.
   PSTRESS=    0.0 pullay stress

  Mass of Ions in am
   POMASS =   1.00 12.01
  Ionic Valenz
   ZVAL   =   1.00  4.00
  Atomic Wigner-Seitz radii
   RWIGS  =  -1.00 -1.00
  virtual crystal weights 
   VCA    =   1.00  1.00
   NELECT =      14.0000    total number of electrons
   NUPDOWN=      -1.0000    fix difference up-down

 DOS related values:
   EMIN   =  10.00;   EMAX   =-10.00  energy-range for DOS
   EFERMI =   0.00
   ISMEAR =     0;   SIGMA  =   0.20  broadening in eV -4-tet -1-fermi 0-gaus

 Electronic relaxation 2 (details)
   IALGO  =     38    algorithm
   LDIAG  =      T    sub-space diagonalisation (order eigenvalues)
   LSUBROT=      T    optimize rotation matrix (better conditioning)
   TURBO    =      0    0=normal 1=particle mesh
   IRESTART =      0    0=no restart 2=restart with 2 vectors
   NREBOOT  =      0    no. of reboots
   NMIN     =      0    reboot dimension
   EREF     =   0.00    reference energy to select bands
   IMIX   =      4    mixing-type and parameters
     AMIX     =   0.40;   BMIX     =  1.00
     AMIX_MAG =   1.60;   BMIX_MAG =  1.00
     AMIN     =   0.10
     WC   =   100.;   INIMIX=   1;  MIXPRE=   1

 Intra band minimization:
   WEIMIN = 0.0010     energy-eigenvalue tresh-hold
   EBREAK =  0.21E-05  absolut break condition
   DEPER  =   0.30     relativ break condition  

   TIME   =   0.40     timestep for ELM

  volume/ion in A,a.u.               =      64.00       431.89
  Fermi-wavevector in a.u.,A,eV,Ry     =   0.493205  0.932022  3.309634  0.243251
  Thomas-Fermi vector in A             =   1.497503
 
 Write flags
   LWAVE  =      T    write WAVECAR
   LCHARG =      T    write CHGCAR
   LVTOT  =      F    write LOCPOT, total local potential
   LVHAR  =      F    write LOCPOT, Hartree potential only
   LELF   =      F    write electronic localiz. function (ELF)
   LORBIT =      0    0 simple, 1 ext, 2 COOP (PROOUT)


 Dipole corrections
   LMONO  =      F    monopole corrections only (constant potential shift)
   LDIPOL =      F    correct potential (dipole corrections)
   IDIPOL =      0    1-x, 2-y, 3-z, 4-all directions 
   EPSILON=  1.0000000 bulk dielectric constant

 Exchange correlation treatment:
   GGA     =    --    GGA type
   LEXCH   =     8    internal setting for exchange type
   VOSKOWN=      0    Vosko Wilk Nusair interpolation
   LHFCALC =     F    Hartree Fock is set to
   LHFONE  =     F    Hartree Fock one center treatment
   AEXX    =    0.0000 exact exchange contribution

 Linear response parameters
   LEPSILON=     F    determine dielectric tensor
   LRPA    =     F    only Hartree local field effects (RPA)
   LNABLA  =     F    use nabla operator in PAW spheres
   LVEL    =     F    velocity operator in full k-point grid
   LINTERFAST=   F  fast interpolation
   KINTER  =     0    interpolate to denser k-point grid
   CSHIFT  =0.1000    complex shift for real part using Kramers Kronig
   OMEGAMAX=  -1.0    maximum frequency
   RTIME   =    0.100 relaxation time in fs

 Orbital magnetization related:
   ORBITALMAG=     F  switch on orbital magnetization
   LCHIMAG   =     F  perturbation theory with respect to B field
   DQ        =  0.001000  dq finite difference perturbation B field



--------------------------------------------------------------------------------------------------------


 conjugate gradient relaxation of ions
 charge density and potential will be updated during run
 non-spin polarized calculation
 Variant of blocked Davidson
 Davidson routine will perform the subspace rotation
 perform sub-space diagonalisation
    after iterative eigenvector-optimisation
 modified Broyden-mixing scheme, WC =      100.0
 initial mixing is a Kerker type mixing with AMIX =  0.4000 and BMIX =      1.0000
 Hartree-type preconditioning will be used
 using additional bands            5
 reciprocal scheme for non local part
 calculate Harris-corrections to forces 
   (improved forces if not selfconsistent)
 use gradient corrections 
 use of overlap-Matrix (Vanderbilt PP)
 Gauss-broadening in eV      SIGMA  =   0.20


--------------------------------------------------------------------------------------------------------


  energy-cutoff  :      300.00
  volume of cell :      512.00
      direct lattice vectors                 reciprocal lattice vectors
     8.000000000  0.000000000  0.000000000     0.125000000  0.000000000  0.000000000
     0.000000000  8.000000000  0.000000000     0.000000000  0.125000000  0.000000000
     0.000000000  0.000000000  8.000000000     0.000000000  0.000000000  0.125000000

  length of vectors
     8.000000000  8.000000000  8.000000000     0.125000000  0.125000000  0.125000000


 
 k-points in units of 2pi/SCALE and weight: KPOINTS created by Atomic Simulation Env
   0.00000000  0.00000000  0.00000000       1.000
 
 k-points in reciprocal lattice and weights: KPOINTS created by Atomic Simulation Env
   0.00000000  0.00000000  0.00000000       1.000
 
 position of ions in fractional coordinates (direct lattice) 
   0.00000000  0.12736963  0.14465362
   0.88969462  0.93631513  0.14465362
   0.11030538  0.93631513  0.14465362
   0.00000000  0.87263037  0.85534638
   0.88969462  0.06368487  0.85534638
   0.11030538  0.06368487  0.85534638
   0.00000000  0.00000000  0.09527612
   0.00000000  0.00000000  0.90472388
 
 position of ions in cartesian coordinates  (Angst):
   0.00000000  1.01895700  1.15722900
   7.11755700  7.49052100  1.15722900
   0.88244300  7.49052100  1.15722900
   0.00000000  6.98104300  6.84277100
   7.11755700  0.50947900  6.84277100
   0.88244300  0.50947900  6.84277100
   0.00000000  0.00000000  0.76220900
   0.00000000  0.00000000  7.23779100
 


--------------------------------------------------------------------------------------------------------


 k-point  1 :  0.00000.00000.0000  plane waves:    6031

 maximum and minimum number of plane-waves per node :      6031     6031

 maximum number of plane-waves:      6031
 maximum index in each direction: 
   IXMAX=   11   IYMAX=   11   IZMAX=   11
   IXMIN=  -11   IYMIN=  -11   IZMIN=  -11

 WARNING: aliasing errors must be expected set NGX to  46 to avoid them
 WARNING: aliasing errors must be expected set NGY to  46 to avoid them
 WARNING: aliasing errors must be expected set NGZ to  46 to avoid them
 aliasing errors are usually negligible using standard VASP settings
 and one can safely disregard these warnings

 serial   3D FFT for wavefunctions
 parallel 3D FFT for charge:
    minimum data exchange during FFTs selected (reduces bandwidth)


 total amount of memory used by VASP on root node    68996. kBytes
========================================================================

   base      :      30000. kBytes
   nonl-proj :       1543. kBytes
   fftplans  :      13060. kBytes
   grid      :      23203. kBytes
   one-center:         24. kBytes
   wavefun   :       1166. kBytes
 
 Broyden mixing: mesh for mixing (old mesh)
   NGX = 23   NGY = 23   NGZ = 23
  (NGX  = 72   NGY  = 72   NGZ  = 72)
  gives a total of  12167 points

 initial charge density was supplied:
 charge density of overlapping atoms calculated
 number of electron      14.0000000 magnetization 
 keeping initial charge density in first step


--------------------------------------------------------------------------------------------------------


 Maximum index for augmentation-charges         1033 (set IRDMAX)


--------------------------------------------------------------------------------------------------------


 First call to EWALD:  gamma=   0.222
 Maximum number of real-space cells 3x 3x 3
 Maximum number of reciprocal cells 3x 3x 3

    FEWALD:  cpu time    0.00: real time    0.00


----------------------------------------- Iteration    1(   1)  ---------------------------------------


    POTLOK:  cpu time    0.55: real time    0.55
    SETDIJ:  cpu time    0.02: real time    0.02
     EDDAV:  cpu time    0.30: real time    0.30
       DOS:  cpu time    0.00: real time    0.00
    --------------------------------------------
      LOOP:  cpu time    0.87: real time    0.87

 eigenvalue-minimisations  :    24
 total energy-change (2. order) : 0.6421760E+02  (-0.2711576E+03)
 number of electron      14.0000000 magnetization 
 augmentation part       14.0000000 magnetization 

 Free energy of the ion-electron system (eV)
  ---------------------------------------------------
  alpha Z        PSCENC =         1.51367591
  Ewald energy   TEWEN  =       238.82698518
  -1/2 Hartree   DENC   =      -467.83007563
  -exchange  EXHF       =         0.00000000
  -V(xc)+E(xc)   XCENC  =        41.11769354
  PAW double counting   =        80.35084045      -82.70584614
  entropy T*S    EENTRO =         0.00000000
  eigenvalues    EBANDS =      -115.53013493
  atomic energy  EATOM  =       368.47445962
  ---------------------------------------------------
  free energy    TOTEN  =        64.21759800 eV

  energy without entropy =       64.21759800  energy(sigma->0) =       64.21759800


--------------------------------------------------------------------------------------------------------




----------------------------------------- Iteration    1(   2)  ---------------------------------------


     EDDAV:  cpu time    0.43: real time    0.43
       DOS:  cpu time    0.00: real time    0.00
    --------------------------------------------
      LOOP:  cpu time    0.43: real time    0.44

 eigenvalue-minimisations  :    40
 total energy-change (2. order) :-0.9279263E+02  (-0.9014428E+02)
 number of electron      14.0000000 magnetization 
 augmentation part       14.0000000 magnetization 

 Free energy of the ion-electron system (eV)
  ---------------------------------------------------
  alpha Z        PSCENC =         1.51367591
  Ewald energy   TEWEN  =       238.82698518
  -1/2 Hartree   DENC   =      -467.83007563
  -exchange  EXHF       =         0.00000000
  -V(xc)+E(xc)   XCENC  =        41.11769354
  PAW double counting   =        80.35084045      -82.70584614
  entropy T*S    EENTRO =         0.00000000
  eigenvalues    EBANDS =      -208.32276421
  atomic energy  EATOM  =       368.47445962
  ---------------------------------------------------
  free energy    TOTEN  =       -28.57503128 eV

  energy without entropy =      -28.57503128  energy(sigma->0) =      -28.57503128


--------------------------------------------------------------------------------------------------------




----------------------------------------- Iteration    1(   3)  ---------------------------------------


     EDDAV:  cpu time    0.33: real time    0.33
       DOS:  cpu time    0.00: real time    0.00
    --------------------------------------------
      LOOP:  cpu time    0.33: real time    0.34

 eigenvalue-minimisations  :    28
 total energy-change (2. order) :-0.1616863E+02  (-0.1614577E+02)
 number of electron      14.0000000 magnetization 
 augmentation part       14.0000000 magnetization 

 Free energy of the ion-electron system (eV)
  ---------------------------------------------------
  alpha Z        PSCENC =         1.51367591
  Ewald energy   TEWEN  =       238.82698518
  -1/2 Hartree   DENC   =      -467.83007563
  -exchange  EXHF       =         0.00000000
  -V(xc)+E(xc)   XCENC  =        41.11769354
  PAW double counting   =        80.35084045      -82.70584614
  entropy T*S    EENTRO =         0.00000000
  eigenvalues    EBANDS =      -224.49139348
  atomic energy  EATOM  =       368.47445962
  ---------------------------------------------------
  free energy    TOTEN  =       -44.74366055 eV

  energy without entropy =      -44.74366055  energy(sigma->0) =      -44.74366055


--------------------------------------------------------------------------------------------------------




----------------------------------------- Iteration    1(   4)  ---------------------------------------


     EDDAV:  cpu time    0.36: real time    0.37
       DOS:  cpu time    0.00: real time    0.00
    --------------------------------------------
      LOOP:  cpu time    0.37: real time    0.38

 eigenvalue-minimisations  :    32
 total energy-change (2. order) :-0.7850691E+00  (-0.7847891E+00)
 number of electron      14.0000000 magnetization 
 augmentation part       14.0000000 magnetization 

 Free energy of the ion-electron system (eV)
  ---------------------------------------------------
  alpha Z        PSCENC =         1.51367591
  Ewald energy   TEWEN  =       238.82698518
  -1/2 Hartree   DENC   =      -467.83007563
  -exchange  EXHF       =         0.00000000
  -V(xc)+E(xc)   XCENC  =        41.11769354
  PAW double counting   =        80.35084045      -82.70584614
  entropy T*S    EENTRO =         0.00000000
  eigenvalues    EBANDS =      -225.27646257
  atomic energy  EATOM  =       368.47445962
  ---------------------------------------------------
  free energy    TOTEN  =       -45.52872964 eV

  energy without entropy =      -45.52872964  energy(sigma->0) =      -45.52872964


--------------------------------------------------------------------------------------------------------




----------------------------------------- Iteration    1(   5)  ---------------------------------------


     EDDAV:  cpu time    0.37: real time    0.37
       DOS:  cpu time    0.00: real time    0.00
    CHARGE:  cpu time    0.07: real time    0.07
    MIXING:  cpu time    0.02: real time    0.02
    --------------------------------------------
      LOOP:  cpu time    0.45: real time    0.46

 eigenvalue-minimisations  :    32
 total energy-change (2. order) :-0.2295870E-01  (-0.2293507E-01)
 number of electron      14.0000070 magnetization 
 augmentation part        0.3618974 magnetization 

 Broyden mixing:
  rms(total) = 0.10217E+01    rms(broyden)= 0.10213E+01
  rms(prec ) = 0.16799E+01
  weight for this iteration     100.00

 Free energy of the ion-electron system (eV)
  ---------------------------------------------------
  alpha Z        PSCENC =         1.51367591
  Ewald energy   TEWEN  =       238.82698518
  -1/2 Hartree   DENC   =      -467.83007563
  -exchange  EXHF       =         0.00000000
  -V(xc)+E(xc)   XCENC  =        41.11769354
  PAW double counting   =        80.35084045      -82.70584614
  entropy T*S    EENTRO =         0.00000000
  eigenvalues    EBANDS =      -225.29942127
  atomic energy  EATOM  =       368.47445962
  ---------------------------------------------------
  free energy    TOTEN  =       -45.55168834 eV

  energy without entropy =      -45.55168834  energy(sigma->0) =      -45.55168834


--------------------------------------------------------------------------------------------------------




----------------------------------------- Iteration    1(   6)  ---------------------------------------


    POTLOK:  cpu time    0.55: real time    0.55
    SETDIJ:  cpu time    0.02: real time    0.02
     EDDAV:  cpu time    0.33: real time    0.33
       DOS:  cpu time    0.00: real time    0.00
    CHARGE:  cpu time    0.06: real time    0.07
    MIXING:  cpu time    0.02: real time    0.02
    --------------------------------------------
      LOOP:  cpu time    0.99: real time    1.00

 eigenvalue-minimisations  :    28
 total energy-change (2. order) : 0.4136853E+01  (-0.7438345E+00)
 number of electron      14.0000063 magnetization 
 augmentation part        0.3259512 magnetization 

 Broyden mixing:
  rms(total) = 0.47418E+00    rms(broyden)= 0.47398E+00
  rms(prec ) = 0.75101E+00
  weight for this iteration     100.00

 eigenvalues of (default mixing * dielectric matrix)
  average eigenvalue GAMMA=   1.4653
  1.4653

 Free energy of the ion-electron system (eV)
  ---------------------------------------------------
  alpha Z        PSCENC =         1.51367591
  Ewald energy   TEWEN  =       238.82698518
  -1/2 Hartree   DENC   =      -500.76745691
  -exchange  EXHF       =         0.00000000
  -V(xc)+E(xc)   XCENC  =        42.94912377
  PAW double counting   =       127.61102525     -130.22855897
  entropy T*S    EENTRO =         0.00000000
  eigenvalues    EBANDS =      -189.79408949
  atomic energy  EATOM  =       368.47445962
  ---------------------------------------------------
  free energy    TOTEN  =       -41.41483565 eV

  energy without entropy =      -41.41483565  energy(sigma->0) =      -41.41483565


--------------------------------------------------------------------------------------------------------




----------------------------------------- Iteration    1(   7)  ---------------------------------------


    POTLOK:  cpu time    0.65: real time    0.65
    SETDIJ:  cpu time    0.02: real time    0.02
     EDDAV:  cpu time    0.39: real time    0.39
       DOS:  cpu time    0.00: real time    0.00
    CHARGE:  cpu time    0.09: real time    0.09
    MIXING:  cpu time    0.02: real time    0.02
    --------------------------------------------
      LOOP:  cpu time    1.18: real time    1.19

 eigenvalue-minimisations  :    28
 total energy-change (2. order) : 0.8843960E+00  (-0.2597885E+00)
 number of electron      14.0000060 magnetization 
 augmentation part        0.3104645 magnetization 

 Broyden mixing:
  rms(total) = 0.22511E+00    rms(broyden)= 0.22487E+00
  rms(prec ) = 0.32610E+00
  weight for this iteration     100.00

 eigenvalues of (default mixing * dielectric matrix)
  average eigenvalue GAMMA=   2.0025
  1.5583  2.4466

 Free energy of the ion-electron system (eV)
  ---------------------------------------------------
  alpha Z        PSCENC =         1.51367591
  Ewald energy   TEWEN  =       238.82698518
  -1/2 Hartree   DENC   =      -523.96865106
  -exchange  EXHF       =         0.00000000
  -V(xc)+E(xc)   XCENC  =        44.46973350
  PAW double counting   =       161.70497501     -164.39132927
  entropy T*S    EENTRO =         0.00000000
  eigenvalues    EBANDS =      -167.16028855
  atomic energy  EATOM  =       368.47445962
  ---------------------------------------------------
  free energy    TOTEN  =       -40.53043965 eV

  energy without entropy =      -40.53043965  energy(sigma->0) =      -40.53043965


--------------------------------------------------------------------------------------------------------




----------------------------------------- Iteration    1(   8)  ---------------------------------------


    POTLOK:  cpu time    0.64: real time    0.64
    SETDIJ:  cpu time    0.02: real time    0.02
     EDDAV:  cpu time    0.35: real time    0.35
       DOS:  cpu time    0.00: real time    0.00
    CHARGE:  cpu time    0.09: real time    0.09
    MIXING:  cpu time    0.02: real time    0.02
    --------------------------------------------
      LOOP:  cpu time    1.13: real time    1.13

 eigenvalue-minimisations  :    24
 total energy-change (2. order) : 0.2033503E+00  (-0.3732715E-01)
 number of electron      14.0000060 magnetization 
 augmentation part        0.3112095 magnetization 

 Broyden mixing:
  rms(total) = 0.57510E-01    rms(broyden)= 0.57475E-01
  rms(prec ) = 0.11550E+00
  weight for this iteration     100.00

 eigenvalues of (default mixing * dielectric matrix)
  average eigenvalue GAMMA=   1.5496
  2.3394  0.8675  1.4418

 Free energy of the ion-electron system (eV)
  ---------------------------------------------------
  alpha Z        PSCENC =         1.51367591
  Ewald energy   TEWEN  =       238.82698518
  -1/2 Hartree   DENC   =      -532.00441719
  -exchange  EXHF       =         0.00000000
  -V(xc)+E(xc)   XCENC  =        45.26501071
  PAW double counting   =       168.87653647     -171.46741792
  entropy T*S    EENTRO =         0.00000000
  eigenvalues    EBANDS =      -159.81192216
  atomic energy  EATOM  =       368.47445962
  ---------------------------------------------------
  free energy    TOTEN  =       -40.32708937 eV

  energy without entropy =      -40.32708937  energy(sigma->0) =      -40.32708937


--------------------------------------------------------------------------------------------------------




----------------------------------------- Iteration    1(   9)  ---------------------------------------


    POTLOK:  cpu time    0.64: real time    0.64
    SETDIJ:  cpu time    0.02: real time    0.02
     EDDAV:  cpu time    0.43: real time    0.43
       DOS:  cpu time    0.00: real time    0.00
    CHARGE:  cpu time    0.09: real time    0.09
    MIXING:  cpu time    0.02: real time    0.02
    --------------------------------------------
      LOOP:  cpu time    1.21: real time    1.22

 eigenvalue-minimisations  :    32
 total energy-change (2. order) : 0.1480891E-01  (-0.4422270E-02)
 number of electron      14.0000059 magnetization 
 augmentation part        0.3096346 magnetization 

 Broyden mixing:
  rms(total) = 0.29261E-01    rms(broyden)= 0.29255E-01
  rms(prec ) = 0.70147E-01
  weight for this iteration     100.00

 eigenvalues of (default mixing * dielectric matrix)
  average eigenvalue GAMMA=   1.6206
  2.0784  2.0784  0.9941  1.3315

 Free energy of the ion-electron system (eV)
  ---------------------------------------------------
  alpha Z        PSCENC =         1.51367591
  Ewald energy   TEWEN  =       238.82698518
  -1/2 Hartree   DENC   =      -534.02076508
  -exchange  EXHF       =         0.00000000
  -V(xc)+E(xc)   XCENC  =        45.33881384
  PAW double counting   =       170.58220247     -173.18857729
  entropy T*S    EENTRO =         0.00000000
  eigenvalues    EBANDS =      -157.83907511
  atomic energy  EATOM  =       368.47445962
  ---------------------------------------------------
  free energy    TOTEN  =       -40.31228046 eV

  energy without entropy =      -40.31228046  energy(sigma->0) =      -40.31228046


--------------------------------------------------------------------------------------------------------




----------------------------------------- Iteration    1(  10)  ---------------------------------------


    POTLOK:  cpu time    0.64: real time    0.64
    SETDIJ:  cpu time    0.02: real time    0.02
     EDDAV:  cpu time    0.43: real time    0.43
       DOS:  cpu time    0.00: real time    0.00
    CHARGE:  cpu time    0.09: real time    0.09
    MIXING:  cpu time    0.02: real time    0.03
    --------------------------------------------
      LOOP:  cpu time    1.21: real time    1.22

 eigenvalue-minimisations  :    32
 total energy-change (2. order) :-0.8616477E-02  (-0.8576276E-02)
 number of electron      14.0000059 magnetization 
 augmentation part        0.3063001 magnetization 

 Broyden mixing:
  rms(total) = 0.34661E-01    rms(broyden)= 0.34628E-01
  rms(prec ) = 0.57315E-01
  weight for this iteration     100.00

 eigenvalues of (default mixing * dielectric matrix)
  average eigenvalue GAMMA=   1.7413
  2.8721  2.6692  1.2468  0.9593  0.9593

 Free energy of the ion-electron system (eV)
  ---------------------------------------------------
  alpha Z        PSCENC =         1.51367591
  Ewald energy   TEWEN  =       238.82698518
  -1/2 Hartree   DENC   =      -538.21868159
  -exchange  EXHF       =         0.00000000
  -V(xc)+E(xc)   XCENC  =        45.46023458
  PAW double counting   =       169.86508106     -172.48508024
  entropy T*S    EENTRO =         0.00000000
  eigenvalues    EBANDS =      -153.75757146
  atomic energy  EATOM  =       368.47445962
  ---------------------------------------------------
  free energy    TOTEN  =       -40.32089694 eV

  energy without entropy =      -40.32089694  energy(sigma->0) =      -40.32089694


--------------------------------------------------------------------------------------------------------




----------------------------------------- Iteration    1(  11)  ---------------------------------------


    POTLOK:  cpu time    0.64: real time    0.64
    SETDIJ:  cpu time    0.02: real time    0.02
     EDDAV:  cpu time    0.44: real time    0.44
       DOS:  cpu time    0.00: real time    0.00
    CHARGE:  cpu time    0.09: real time    0.09
    MIXING:  cpu time    0.02: real time    0.03
    --------------------------------------------
      LOOP:  cpu time    1.21: real time    1.22

 eigenvalue-minimisations  :    32
 total energy-change (2. order) : 0.3759368E-02  (-0.1560999E-02)
 number of electron      14.0000059 magnetization 
 augmentation part        0.3075404 magnetization 

 Broyden mixing:
  rms(total) = 0.90833E-02    rms(broyden)= 0.90807E-02
  rms(prec ) = 0.17505E-01
  weight for this iteration     100.00

 eigenvalues of (default mixing * dielectric matrix)
  average eigenvalue GAMMA=   1.9361
  3.9225  2.2064  2.2064  1.0034  1.1389  1.1389

 Free energy of the ion-electron system (eV)
  ---------------------------------------------------
  alpha Z        PSCENC =         1.51367591
  Ewald energy   TEWEN  =       238.82698518
  -1/2 Hartree   DENC   =      -538.16717835
  -exchange  EXHF       =         0.00000000
  -V(xc)+E(xc)   XCENC  =        45.46300911
  PAW double counting   =       168.54857068     -171.15398149
  entropy T*S    EENTRO =         0.00000000
  eigenvalues    EBANDS =      -153.82267824
  atomic energy  EATOM  =       368.47445962
  ---------------------------------------------------
  free energy    TOTEN  =       -40.31713757 eV

  energy without entropy =      -40.31713757  energy(sigma->0) =      -40.31713757


--------------------------------------------------------------------------------------------------------




----------------------------------------- Iteration    1(  12)  ---------------------------------------


    POTLOK:  cpu time    0.62: real time    0.62
    SETDIJ:  cpu time    0.02: real time    0.02
     EDDAV:  cpu time    0.35: real time    0.35
       DOS:  cpu time    0.00: real time    0.00
    CHARGE:  cpu time    0.09: real time    0.09
    MIXING:  cpu time    0.03: real time    0.03
    --------------------------------------------
      LOOP:  cpu time    1.11: real time    1.12

 eigenvalue-minimisations  :    24
 total energy-change (2. order) :-0.6509264E-02  (-0.1945940E-03)
 number of electron      14.0000059 magnetization 
 augmentation part        0.3074838 magnetization 

 Broyden mixing:
  rms(total) = 0.50090E-02    rms(broyden)= 0.50034E-02
  rms(prec ) = 0.91620E-02
  weight for this iteration     100.00

 eigenvalues of (default mixing * dielectric matrix)
  average eigenvalue GAMMA=   1.9987
  4.5797  2.8613  2.1799  1.2521  1.0127  1.0524  1.0524

 Free energy of the ion-electron system (eV)
  ---------------------------------------------------
  alpha Z        PSCENC =         1.51367591
  Ewald energy   TEWEN  =       238.82698518
  -1/2 Hartree   DENC   =      -538.83397924
  -exchange  EXHF       =         0.00000000
  -V(xc)+E(xc)   XCENC  =        45.48872663
  PAW double counting   =       169.10148471     -171.70396946
  entropy T*S    EENTRO =         0.00000000
  eigenvalues    EBANDS =      -153.19103019
  atomic energy  EATOM  =       368.47445962
  ---------------------------------------------------
  free energy    TOTEN  =       -40.32364684 eV

  energy without entropy =      -40.32364684  energy(sigma->0) =      -40.32364684


--------------------------------------------------------------------------------------------------------




----------------------------------------- Iteration    1(  13)  ---------------------------------------


    POTLOK:  cpu time    0.62: real time    0.62
    SETDIJ:  cpu time    0.02: real time    0.02
     EDDAV:  cpu time    0.43: real time    0.43
       DOS:  cpu time    0.00: real time    0.00
    CHARGE:  cpu time    0.09: real time    0.09
    MIXING:  cpu time    0.03: real time    0.03
    --------------------------------------------
      LOOP:  cpu time    1.19: real time    1.19

 eigenvalue-minimisations  :    32
 total energy-change (2. order) :-0.2675867E-02  (-0.1046338E-03)
 number of electron      14.0000059 magnetization 
 augmentation part        0.3077916 magnetization 

 Broyden mixing:
  rms(total) = 0.29504E-02    rms(broyden)= 0.29479E-02
  rms(prec ) = 0.52921E-02
  weight for this iteration     100.00

 eigenvalues of (default mixing * dielectric matrix)
  average eigenvalue GAMMA=   2.1779
  5.1978  3.1829  2.8209  1.9170  1.0141  1.0141  1.1380  1.1380

 Free energy of the ion-electron system (eV)
  ---------------------------------------------------
  alpha Z        PSCENC =         1.51367591
  Ewald energy   TEWEN  =       238.82698518
  -1/2 Hartree   DENC   =      -538.28922184
  -exchange  EXHF       =         0.00000000
  -V(xc)+E(xc)   XCENC  =        45.44739339
  PAW double counting   =       168.57589207     -171.17862569
  entropy T*S    EENTRO =         0.00000000
  eigenvalues    EBANDS =      -153.69688134
  atomic energy  EATOM  =       368.47445962
  ---------------------------------------------------
  free energy    TOTEN  =       -40.32632270 eV

  energy without entropy =      -40.32632270  energy(sigma->0) =      -40.32632270


--------------------------------------------------------------------------------------------------------




----------------------------------------- Iteration    1(  14)  ---------------------------------------


    POTLOK:  cpu time    0.62: real time    0.62
    SETDIJ:  cpu time    0.02: real time    0.02
     EDDAV:  cpu time    0.43: real time    0.43
       DOS:  cpu time    0.00: real time    0.00
    CHARGE:  cpu time    0.09: real time    0.09
    MIXING:  cpu time    0.03: real time    0.03
    --------------------------------------------
      LOOP:  cpu time    1.19: real time    1.21

 eigenvalue-minimisations  :    32
 total energy-change (2. order) :-0.1386306E-02  (-0.2634690E-04)
 number of electron      14.0000059 magnetization 
 augmentation part        0.3076835 magnetization 

 Broyden mixing:
  rms(total) = 0.21577E-02    rms(broyden)= 0.21572E-02
  rms(prec ) = 0.30063E-02
  weight for this iteration     100.00

 eigenvalues of (default mixing * dielectric matrix)
  average eigenvalue GAMMA=   2.1242
  5.5775  3.5652  2.3404  2.3404  1.0485  1.0485  1.1449  1.1449  0.9072

 Free energy of the ion-electron system (eV)
  ---------------------------------------------------
  alpha Z        PSCENC =         1.51367591
  Ewald energy   TEWEN  =       238.82698518
  -1/2 Hartree   DENC   =      -538.48018905
  -exchange  EXHF       =         0.00000000
  -V(xc)+E(xc)   XCENC  =        45.46001533
  PAW double counting   =       168.85290284     -171.45652912
  entropy T*S    EENTRO =         0.00000000
  eigenvalues    EBANDS =      -153.51902973
  atomic energy  EATOM  =       368.47445962
  ---------------------------------------------------
  free energy    TOTEN  =       -40.32770901 eV

  energy without entropy =      -40.32770901  energy(sigma->0) =      -40.32770901


--------------------------------------------------------------------------------------------------------




----------------------------------------- Iteration    1(  15)  ---------------------------------------


    POTLOK:  cpu time    0.62: real time    0.62
    SETDIJ:  cpu time    0.02: real time    0.02
     EDDAV:  cpu time    0.43: real time    0.43
       DOS:  cpu time    0.00: real time    0.00
    CHARGE:  cpu time    0.09: real time    0.09
    MIXING:  cpu time    0.03: real time    0.03
    --------------------------------------------
      LOOP:  cpu time    1.19: real time    1.20

 eigenvalue-minimisations  :    32
 total energy-change (2. order) :-0.1680146E-03  (-0.8980034E-05)
 number of electron      14.0000059 magnetization 
 augmentation part        0.3076166 magnetization 

 Broyden mixing:
  rms(total) = 0.79289E-03    rms(broyden)= 0.79160E-03
  rms(prec ) = 0.11738E-02
  weight for this iteration     100.00

 eigenvalues of (default mixing * dielectric matrix)
  average eigenvalue GAMMA=   2.2603
  6.0135  4.0240  2.7485  2.3997  2.1896  1.0676  1.0676  1.1413  1.0278  0.9231

 Free energy of the ion-electron system (eV)
  ---------------------------------------------------
  alpha Z        PSCENC =         1.51367591
  Ewald energy   TEWEN  =       238.82698518
  -1/2 Hartree   DENC   =      -538.47780779
  -exchange  EXHF       =         0.00000000
  -V(xc)+E(xc)   XCENC  =        45.45622850
  PAW double counting   =       168.78684292     -171.39131583
  entropy T*S    EENTRO =         0.00000000
  eigenvalues    EBANDS =      -153.51694554
  atomic energy  EATOM  =       368.47445962
  ---------------------------------------------------
  free energy    TOTEN  =       -40.32787703 eV

  energy without entropy =      -40.32787703  energy(sigma->0) =      -40.32787703


--------------------------------------------------------------------------------------------------------




----------------------------------------- Iteration    1(  16)  ---------------------------------------


    POTLOK:  cpu time    0.63: real time    0.63
    SETDIJ:  cpu time    0.02: real time    0.02
     EDDAV:  cpu time    0.38: real time    0.38
       DOS:  cpu time    0.00: real time    0.00
    CHARGE:  cpu time    0.09: real time    0.09
    MIXING:  cpu time    0.03: real time    0.03
    --------------------------------------------
      LOOP:  cpu time    1.16: real time    1.18

 eigenvalue-minimisations  :    28
 total energy-change (2. order) :-0.1270112E-03  (-0.1839699E-05)
 number of electron      14.0000059 magnetization 
 augmentation part        0.3076209 magnetization 

 Broyden mixing:
  rms(total) = 0.21124E-03    rms(broyden)= 0.21120E-03
  rms(prec ) = 0.33033E-03
  weight for this iteration     100.00

 eigenvalues of (default mixing * dielectric matrix)
  average eigenvalue GAMMA=   2.2190
  6.1529  4.2999  2.7918  2.5907  2.1344  1.2242  1.2242  1.0463  1.0463  0.9856
  0.9129

 Free energy of the ion-electron system (eV)
  ---------------------------------------------------
  alpha Z        PSCENC =         1.51367591
  Ewald energy   TEWEN  =       238.82698518
  -1/2 Hartree   DENC   =      -538.47799763
  -exchange  EXHF       =         0.00000000
  -V(xc)+E(xc)   XCENC  =        45.45706315
  PAW double counting   =       168.78840641     -171.39250045
  entropy T*S    EENTRO =         0.00000000
  eigenvalues    EBANDS =      -153.51809623
  atomic energy  EATOM  =       368.47445962
  ---------------------------------------------------
  free energy    TOTEN  =       -40.32800404 eV

  energy without entropy =      -40.32800404  energy(sigma->0) =      -40.32800404


--------------------------------------------------------------------------------------------------------




----------------------------------------- Iteration    1(  17)  ---------------------------------------


    POTLOK:  cpu time    0.63: real time    0.63
    SETDIJ:  cpu time    0.02: real time    0.02
     EDDAV:  cpu time    0.42: real time    0.42
       DOS:  cpu time    0.00: real time    0.00
    --------------------------------------------
      LOOP:  cpu time    1.08: real time    1.10

 eigenvalue-minimisations  :    32
 total energy-change (2. order) :-0.1065858E-04  (-0.1155402E-06)
 number of electron      14.0000059 magnetization 
 augmentation part        0.3076209 magnetization 

 Free energy of the ion-electron system (eV)
  ---------------------------------------------------
  alpha Z        PSCENC =         1.51367591
  Ewald energy   TEWEN  =       238.82698518
  -1/2 Hartree   DENC   =      -538.47035546
  -exchange  EXHF       =         0.00000000
  -V(xc)+E(xc)   XCENC  =        45.45667681
  PAW double counting   =       168.78434022     -171.38837860
  entropy T*S    EENTRO =         0.00000000
  eigenvalues    EBANDS =      -153.52541838
  atomic energy  EATOM  =       368.47445962
  ---------------------------------------------------
  free energy    TOTEN  =       -40.32801469 eV

  energy without entropy =      -40.32801469  energy(sigma->0) =      -40.32801469


--------------------------------------------------------------------------------------------------------




 average (electrostatic) potential at core
  the test charge radii are     0.5201  0.6991
  (the norm of the test charge is              1.0000)
       1 -41.0079       2 -41.0097       3 -41.0097       4 -41.0079       5 -41.0097
       6 -41.0097       7 -57.9614       8 -57.9614
 
 
 
 E-fermi :  -6.6615     XC(G=0):  -1.7825     alpha+bet : -0.7157


 k-point   1 :       0.0000    0.0000    0.0000
  band No.  band energies     occupation 
      1     -18.1930      2.00000
      2     -14.6266      2.00000
      3     -10.0876      2.00000
      4     -10.0866      2.00000
      5      -8.4455      2.00000
      6      -7.6620      2.00000
      7      -7.6615      2.00000
      8      -0.5603      0.00000
      9       1.3777      0.00000
     10       1.4203      0.00000
     11       1.4448      0.00000
     12       1.5462      0.00000


--------------------------------------------------------------------------------------------------------


 soft charge-density along one line, spin component           1
         0         1         2         3         4         5         6         7         8         9
 total charge-density along one line
 
 pseudopotential strength for first ion, spin component:           1
 -2.335  -0.010   0.002   0.001   0.000
 -0.010   0.049   0.002   0.001   0.000
  0.002   0.002  -0.335   0.002   0.000
  0.001   0.001   0.002  -0.339   0.000
  0.000   0.000   0.000   0.000  -0.339
 total augmentation occupancy for first ion, spin component:           1
  1.740  -0.741  -0.258  -0.101   0.000
 -0.741   0.368   0.123   0.048   0.000
 -0.258   0.123   0.042   0.014   0.000
 -0.101   0.048   0.014   0.014   0.000
  0.000   0.000   0.000   0.000   0.009


------------------------ aborting loop because EDIFF is reached ----------------------------------------


    CHARGE:  cpu time    0.08: real time    0.09
    FORLOC:  cpu time    0.08: real time    0.08
    FORNL :  cpu time    0.08: real time    0.08
    STRESS:  cpu time    0.21: real time    0.21
    FORHAR:  cpu time    0.23: real time    0.23
    MIXING:  cpu time    0.03: real time    0.03

  FORCE on cell =-STRESS in cart. coord.  units (eV):
  Direction    XX          YY          ZZ          XY          YZ          ZX
  --------------------------------------------------------------------------------------
  Alpha Z     1.51368     1.51368     1.51368
  Ewald      17.85181    17.85136   203.12363     0.00000    -0.16171     0.00000
  Hartree   130.95445   130.95382   276.55850     0.00000    -0.12352     0.00000
  E(xc)     -48.03028   -48.03026   -47.96774     0.00000     0.00007     0.00000
  Local    -260.89274  -260.90812  -597.94513     0.00000     0.27563     0.00000
  n-local   -26.37071   -26.37564   -25.00836     0.00000    -0.00406     0.00000
  augment     0.00308     0.00249     0.06028     0.00000    -0.00003     0.00000
  Kinetic   182.31540   182.31037   187.25336     0.00000    -0.00550     0.00000
  Fock        0.00000     0.00000     0.00000     0.00000     0.00000     0.00000
  -------------------------------------------------------------------------------------
  Total      -2.65533    -2.68230    -2.41179     0.00000    -0.01912     0.00000
  in kB      -8.30918    -8.39361    -7.54711     0.00000    -0.05984     0.00000
  external pressure =       -8.08 kB  Pullay stress =        0.00 kB


 VOLUME and BASIS-vectors are now :
 -----------------------------------------------------------------------------
  energy-cutoff  :      300.00
  volume of cell :      512.00
      direct lattice vectors                 reciprocal lattice vectors
     8.000000000  0.000000000  0.000000000     0.125000000  0.000000000  0.000000000
     0.000000000  8.000000000  0.000000000     0.000000000  0.125000000  0.000000000
     0.000000000  0.000000000  8.000000000     0.000000000  0.000000000  0.125000000

  length of vectors
     8.000000000  8.000000000  8.000000000     0.125000000  0.125000000  0.125000000


 FORCES acting on ions
    electron-ion (+dipol)            ewald-force                    non-local-force                 convergence-correction
 -----------------------------------------------------------------------------------------------
   0.397E-15 -.536E+02 -.292E+02   -.122E-14 0.591E+02 0.314E+02   0.103E-23 -.509E+01 -.200E+01   0.351E-14 -.176E-03 -.259E-03
   0.465E+02 0.269E+02 -.292E+02   -.512E+02 -.296E+02 0.314E+02   0.440E+01 0.254E+01 -.201E+01   0.159E-03 0.815E-04 -.255E-03
   -.465E+02 0.269E+02 -.292E+02   0.512E+02 -.296E+02 0.314E+02   -.440E+01 0.254E+01 -.201E+01   -.159E-03 0.815E-04 -.255E-03
   -.274E-15 0.536E+02 0.292E+02   -.110E-14 -.591E+02 -.314E+02   0.000E+00 0.509E+01 0.200E+01   0.868E-14 0.176E-03 0.259E-03
   0.465E+02 -.269E+02 0.292E+02   -.512E+02 0.296E+02 -.314E+02   0.440E+01 -.254E+01 0.201E+01   0.159E-03 -.815E-04 0.255E-03
   -.465E+02 -.269E+02 0.292E+02   0.512E+02 0.296E+02 -.314E+02   -.440E+01 -.254E+01 0.201E+01   -.159E-03 -.815E-04 0.255E-03
   0.184E-14 -.797E-02 -.734E+02   0.287E-14 0.768E-02 0.735E+02   0.529E-22 0.762E-02 -.358E+00   0.248E-13 -.692E-04 -.141E-02
   0.579E-15 0.797E-02 0.734E+02   0.925E-14 -.768E-02 -.735E+02   -.529E-22 -.762E-02 0.358E+00   0.481E-13 0.692E-04 0.141E-02
 -----------------------------------------------------------------------------------------------
   0.152E-12 0.536E-12 0.881E-12   0.121E-13 -.253E-15 0.000E+00   0.000E+00 0.888E-15 0.444E-15   0.988E-13 0.109E-12 -.318E-13
 
 
 POSITION                                       TOTAL-FORCE (eV/Angst)
 -----------------------------------------------------------------------------------
      0.00000      1.01896      1.15723         0.000000      0.378216      0.186936
      7.11756      7.49052      1.15723        -0.333781     -0.187408      0.177332
      0.88244      7.49052      1.15723         0.333781     -0.187408      0.177332
      0.00000      6.98104      6.84277         0.000000     -0.378216     -0.186936
      7.11756      0.50948      6.84277        -0.333781      0.187408     -0.177332
      0.88244      0.50948      6.84277         0.333781      0.187408     -0.177332
      0.00000      0.00000      0.76221         0.000000      0.007255     -0.283929
      0.00000      0.00000      7.23779         0.000000     -0.007255      0.283929
 -----------------------------------------------------------------------------------
    total drift:                                0.000000      0.000000      0.000000


--------------------------------------------------------------------------------------------------------



  FREE ENERGIE OF THE ION-ELECTRON SYSTEM (eV)
  ---------------------------------------------------
  free  energy   TOTEN  =       -40.328015 eV

  energy  without entropy=      -40.328015  energy(sigma->0) =      -40.328015
 


--------------------------------------------------------------------------------------------------------


    POTLOK:  cpu time    0.66: real time    0.66


--------------------------------------------------------------------------------------------------------




--------------------------------------------------------------------------------------------------------


    WAVPRE:  cpu time    0.13: real time    0.13
    FEWALD:  cpu time    0.00: real time    0.00
    ORTHCH:  cpu time    0.02: real time    0.02
     LOOP+:  cpu time   18.54: real time   18.84


----------------------------------------- Iteration    2(   1)  ---------------------------------------


    POTLOK:  cpu time    0.58: real time    0.58
    SETDIJ:  cpu time    0.02: real time    0.02
     EDDAV:  cpu time    0.36: real time    0.36
       DOS:  cpu time    0.00: real time    0.00
    CHARGE:  cpu time    0.08: real time    0.08
    MIXING:  cpu time    0.02: real time    0.02
    --------------------------------------------
      LOOP:  cpu time    1.06: real time    1.07

 eigenvalue-minimisations  :    28
 total energy-change (2. order) :-0.1765359E-02  (-0.2363071E+00)
 number of electron      14.0000064 magnetization 
 augmentation part        0.2985360 magnetization 

 Broyden mixing:
  rms(total) = 0.60262E-01    rms(broyden)= 0.60145E-01
  rms(prec ) = 0.85978E-01
  weight for this iteration     100.00

 Free energy of the ion-electron system (eV)
  ---------------------------------------------------
  alpha Z        PSCENC =         1.51367591
  Ewald energy   TEWEN  =       232.88325490
  -1/2 Hartree   DENC   =      -535.33895517
  -exchange  EXHF       =         0.00000000
  -V(xc)+E(xc)   XCENC  =        45.26699441
  PAW double counting   =       168.78664122     -171.39064485
  entropy T*S    EENTRO =         0.00000000
  eigenvalues    EBANDS =      -150.52519543
  atomic energy  EATOM  =       368.47445962
  ---------------------------------------------------
  free energy    TOTEN  =       -40.32976940 eV

  energy without entropy =      -40.32976940  energy(sigma->0) =      -40.32976940


--------------------------------------------------------------------------------------------------------




----------------------------------------- Iteration    2(   2)  ---------------------------------------


    POTLOK:  cpu time    0.54: real time    0.54
    SETDIJ:  cpu time    0.02: real time    0.02
     EDDAV:  cpu time    0.32: real time    0.32
       DOS:  cpu time    0.00: real time    0.00
    CHARGE:  cpu time    0.08: real time    0.08
    MIXING:  cpu time    0.02: real time    0.02
    --------------------------------------------
      LOOP:  cpu time    0.98: real time    0.98

 eigenvalue-minimisations  :    24
 total energy-change (2. order) : 0.6878925E-02  (-0.3782218E-02)
 number of electron      14.0000064 magnetization 
 augmentation part        0.2990885 magnetization 

 Broyden mixing:
  rms(total) = 0.31398E-01    rms(broyden)= 0.31390E-01
  rms(prec ) = 0.42783E-01
  weight for this iteration     100.00

 eigenvalues of (default mixing * dielectric matrix)
  average eigenvalue GAMMA=   1.8984
  1.8984

 Free energy of the ion-electron system (eV)
  ---------------------------------------------------
  alpha Z        PSCENC =         1.51367591
  Ewald energy   TEWEN  =       232.88325490
  -1/2 Hartree   DENC   =      -534.04699729
  -exchange  EXHF       =         0.00000000
  -V(xc)+E(xc)   XCENC  =        45.19241740
  PAW double counting   =       165.61842904     -168.20728133
  entropy T*S    EENTRO =         0.00000000
  eigenvalues    EBANDS =      -151.75084871
  atomic energy  EATOM  =       368.47445962
  ---------------------------------------------------
  free energy    TOTEN  =       -40.32289047 eV

  energy without entropy =      -40.32289047  energy(sigma->0) =      -40.32289047


--------------------------------------------------------------------------------------------------------




----------------------------------------- Iteration    2(   3)  ---------------------------------------


    POTLOK:  cpu time    0.52: real time    0.53
    SETDIJ:  cpu time    0.02: real time    0.02
     EDDAV:  cpu time    0.36: real time    0.36
       DOS:  cpu time    0.00: real time    0.00
    CHARGE:  cpu time    0.08: real time    0.08
    MIXING:  cpu time    0.02: real time    0.02
    --------------------------------------------
      LOOP:  cpu time    1.00: real time    1.02

 eigenvalue-minimisations  :    28
 total energy-change (2. order) : 0.1999116E-02  (-0.1390071E-02)
 number of electron      14.0000064 magnetization 
 augmentation part        0.3002685 magnetization 

 Broyden mixing:
  rms(total) = 0.85905E-02    rms(broyden)= 0.85767E-02
  rms(prec ) = 0.12507E-01
  weight for this iteration     100.00

 eigenvalues of (default mixing * dielectric matrix)
  average eigenvalue GAMMA=   1.4090
  1.3559  1.4620

 Free energy of the ion-electron system (eV)
  ---------------------------------------------------
  alpha Z        PSCENC =         1.51367591
  Ewald energy   TEWEN  =       232.88325490
  -1/2 Hartree   DENC   =      -533.06438430
  -exchange  EXHF       =         0.00000000
  -V(xc)+E(xc)   XCENC  =        45.13428989
  PAW double counting   =       162.85946671     -165.43665203
  entropy T*S    EENTRO =         0.00000000
  eigenvalues    EBANDS =      -152.68500205
  atomic energy  EATOM  =       368.47445962
  ---------------------------------------------------
  free energy    TOTEN  =       -40.32089135 eV

  energy without entropy =      -40.32089135  energy(sigma->0) =      -40.32089135


--------------------------------------------------------------------------------------------------------




----------------------------------------- Iteration    2(   4)  ---------------------------------------


    POTLOK:  cpu time    0.53: real time    0.53
    SETDIJ:  cpu time    0.02: real time    0.02
     EDDAV:  cpu time    0.32: real time    0.32
       DOS:  cpu time    0.00: real time    0.00
    CHARGE:  cpu time    0.08: real time    0.08
    MIXING:  cpu time    0.02: real time    0.02
    --------------------------------------------
      LOOP:  cpu time    0.97: real time    0.99

 eigenvalue-minimisations  :    24
 total energy-change (2. order) : 0.4655796E-04  (-0.1390244E-03)
 number of electron      14.0000064 magnetization 
 augmentation part        0.2999673 magnetization 

 Broyden mixing:
  rms(total) = 0.49655E-02    rms(broyden)= 0.49653E-02
  rms(prec ) = 0.62680E-02
  weight for this iteration     100.00

 eigenvalues of (default mixing * dielectric matrix)
  average eigenvalue GAMMA=   1.6102
  2.4845  1.1731  1.1731

 Free energy of the ion-electron system (eV)
  ---------------------------------------------------
  alpha Z        PSCENC =         1.51367591
  Ewald energy   TEWEN  =       232.88325490
  -1/2 Hartree   DENC   =      -533.31516552
  -exchange  EXHF       =         0.00000000
  -V(xc)+E(xc)   XCENC  =        45.14456147
  PAW double counting   =       163.13101284     -165.71186741
  entropy T*S    EENTRO =         0.00000000
  eigenvalues    EBANDS =      -152.44077660
  atomic energy  EATOM  =       368.47445962
  ---------------------------------------------------
  free energy    TOTEN  =       -40.32084480 eV

  energy without entropy =      -40.32084480  energy(sigma->0) =      -40.32084480


--------------------------------------------------------------------------------------------------------




----------------------------------------- Iteration    2(   5)  ---------------------------------------


    POTLOK:  cpu time    0.55: real time    0.55
    SETDIJ:  cpu time    0.02: real time    0.02
     EDDAV:  cpu time    0.39: real time    0.40
       DOS:  cpu time    0.00: real time    0.00
    --------------------------------------------
      LOOP:  cpu time    0.96: real time    0.98

 eigenvalue-minimisations  :    32
 total energy-change (2. order) :-0.1822729E-04  (-0.2065160E-04)
 number of electron      14.0000064 magnetization 
 augmentation part        0.2999673 magnetization 

 Free energy of the ion-electron system (eV)
  ---------------------------------------------------
  alpha Z        PSCENC =         1.51367591
  Ewald energy   TEWEN  =       232.88325490
  -1/2 Hartree   DENC   =      -533.18750515
  -exchange  EXHF       =         0.00000000
  -V(xc)+E(xc)   XCENC  =        45.13518368
  PAW double counting   =       162.60378492     -165.18406688
  entropy T*S    EENTRO =         0.00000000
  eigenvalues    EBANDS =      -152.55965002
  atomic energy  EATOM  =       368.47445962
  ---------------------------------------------------
  free energy    TOTEN  =       -40.32086302 eV

  energy without entropy =      -40.32086302  energy(sigma->0) =      -40.32086302


--------------------------------------------------------------------------------------------------------




 average (electrostatic) potential at core
  the test charge radii are     0.5201  0.6991
  (the norm of the test charge is              1.0000)
       1 -40.8437       2 -40.8392       3 -40.8392       4 -40.8437       5 -40.8392
       6 -40.8392       7 -58.0742       8 -58.0742
 
 
 
 E-fermi :  -6.5216     XC(G=0):  -1.7174     alpha+bet : -0.7157


 k-point   1 :       0.0000    0.0000    0.0000
  band No.  band energies     occupation 
      1     -18.2057      2.00000
      2     -14.4254      2.00000
      3     -10.0206      2.00000
      4     -10.0195      2.00000
      5      -8.6170      2.00000
      6      -7.4967      2.00000
      7      -7.4949      2.00000
      8      -0.5253      0.00000
      9       1.3612      0.00000
     10       1.4385      0.00000
     11       1.4545      0.00000
     12       1.5237      0.00000


--------------------------------------------------------------------------------------------------------


 soft charge-density along one line, spin component           1
         0         1         2         3         4         5         6         7         8         9
 total charge-density along one line
 
 pseudopotential strength for first ion, spin component:           1
 -2.333  -0.010   0.001   0.001   0.000
 -0.010   0.049   0.001   0.001   0.000
  0.001   0.001  -0.336   0.002   0.000
  0.001   0.001   0.002  -0.340   0.000
  0.000   0.000   0.000   0.000  -0.341
 total augmentation occupancy for first ion, spin component:           1
  1.688  -0.719  -0.236  -0.097   0.000
 -0.719   0.357   0.113   0.047   0.000
 -0.236   0.113   0.037   0.013   0.000
 -0.097   0.047   0.013   0.013   0.000
  0.000   0.000   0.000   0.000   0.008


------------------------ aborting loop because EDIFF is reached ----------------------------------------


    CHARGE:  cpu time    0.08: real time    0.08
    FORLOC:  cpu time    0.09: real time    0.09
    FORNL :  cpu time    0.08: real time    0.08
    STRESS:  cpu time    0.20: real time    0.20
    FORHAR:  cpu time    0.20: real time    0.20
    MIXING:  cpu time    0.02: real time    0.02

  FORCE on cell =-STRESS in cart. coord.  units (eV):
  Direction    XX          YY          ZZ          XY          YZ          ZX
  --------------------------------------------------------------------------------------
  Alpha Z     1.51368     1.51368     1.51368
  Ewald      13.66802    13.65098   205.56404     0.00000    -0.02852     0.00000
  Hartree   129.91437   129.87171   273.36298     0.00000    -0.08577     0.00000
  E(xc)     -47.68987   -47.69016   -47.60191     0.00000     0.00054     0.00000
  Local    -256.93780  -256.87823  -595.70631     0.00000     0.12729     0.00000
  n-local   -25.49255   -25.50023   -24.36552     0.00000    -0.00327     0.00001
  augment     0.01666     0.01549     0.05366     0.00000    -0.00020     0.00000
  Kinetic   180.34772   180.35794   185.00869     0.00000    -0.02604    -0.00002
  Fock        0.00000     0.00000     0.00000     0.00000     0.00000     0.00000
  -------------------------------------------------------------------------------------
  Total      -4.65976    -4.65883    -2.17070     0.00000    -0.01596     0.00000
  in kB     -14.58157   -14.57864    -6.79266     0.00000    -0.04995     0.00000
  external pressure =      -11.98 kB  Pullay stress =        0.00 kB


 VOLUME and BASIS-vectors are now :
 -----------------------------------------------------------------------------
  energy-cutoff  :      300.00
  volume of cell :      512.00
      direct lattice vectors                 reciprocal lattice vectors
     8.000000000  0.000000000  0.000000000     0.125000000  0.000000000  0.000000000
     0.000000000  8.000000000  0.000000000     0.000000000  0.125000000  0.000000000
     0.000000000  0.000000000  8.000000000     0.000000000  0.000000000  0.125000000

  length of vectors
     8.000000000  8.000000000  8.000000000     0.125000000  0.125000000  0.125000000


 FORCES acting on ions
    electron-ion (+dipol)            ewald-force                    non-local-force                 convergence-correction
 -----------------------------------------------------------------------------------------------
   0.721E-15 -.522E+02 -.291E+02   0.252E-15 0.566E+02 0.310E+02   0.000E+00 -.472E+01 -.195E+01   0.148E-14 0.535E-03 -.262E-02
   0.452E+02 0.262E+02 -.291E+02   -.490E+02 -.284E+02 0.309E+02   0.408E+01 0.236E+01 -.194E+01   -.469E-03 -.223E-03 -.264E-02
   -.452E+02 0.262E+02 -.291E+02   0.490E+02 -.284E+02 0.309E+02   -.408E+01 0.236E+01 -.194E+01   0.469E-03 -.223E-03 -.264E-02
   -.767E-15 0.522E+02 0.291E+02   -.117E-16 -.566E+02 -.310E+02   0.000E+00 0.472E+01 0.195E+01   0.102E-13 -.535E-03 0.262E-02
   0.452E+02 -.262E+02 0.291E+02   -.490E+02 0.284E+02 -.309E+02   0.408E+01 -.236E+01 0.194E+01   -.469E-03 0.223E-03 0.264E-02
   -.452E+02 -.262E+02 0.291E+02   0.490E+02 0.284E+02 -.309E+02   -.408E+01 -.236E+01 0.194E+01   0.469E-03 0.223E-03 0.264E-02
   -.119E-14 -.404E-01 -.768E+02   0.518E-14 0.337E-01 0.777E+02   -.169E-20 -.650E-02 0.319E+00   0.193E-13 0.205E-03 -.256E-01
   0.418E-15 0.404E-01 0.768E+02   0.413E-14 -.337E-01 -.777E+02   0.169E-20 0.650E-02 -.319E+00   0.479E-13 -.205E-03 0.256E-01
 -----------------------------------------------------------------------------------------------
   0.362E-12 -.324E-13 0.284E-12   -.490E-14 -.444E-14 0.142E-13   0.000E+00 0.000E+00 -.444E-15   0.916E-13 0.161E-12 0.252E-13
 
 
 POSITION                                       TOTAL-FORCE (eV/Angst)
 -----------------------------------------------------------------------------------
      0.00000      1.03720      1.16625         0.000000     -0.285448     -0.103579
      7.10145      7.48148      1.16578         0.253180      0.150934     -0.111977
      0.89855      7.48148      1.16578        -0.253180      0.150934     -0.111977
      0.00000      6.96280      6.83375         0.000000      0.285448      0.103579
      7.10145      0.51852      6.83422         0.253180     -0.150934      0.111977
      0.89855      0.51852      6.83422        -0.253180     -0.150934      0.111977
      0.00000      0.00035      0.74851         0.000000     -0.012980      1.234670
      0.00000     -0.00035      7.25149         0.000000      0.012980     -1.234670
 -----------------------------------------------------------------------------------
    total drift:                                0.000000      0.000000      0.000000


--------------------------------------------------------------------------------------------------------



  FREE ENERGIE OF THE ION-ELECTRON SYSTEM (eV)
  ---------------------------------------------------
  free  energy   TOTEN  =       -40.320863 eV

  energy  without entropy=      -40.320863  energy(sigma->0) =      -40.320863
 
 d Force =-0.6206835E-02[-0.717E-01, 0.593E-01]  d Energy =-0.7151672E-02 0.945E-03
 d Force = 0.5944429E+01[ 0.574E+01, 0.615E+01]  d Ewald  = 0.5943730E+01 0.699E-03


--------------------------------------------------------------------------------------------------------


    POTLOK:  cpu time    0.56: real time    0.56


--------------------------------------------------------------------------------------------------------


 Steepest descent step on ions:
 trial-energy change:    0.007152  1 .order    0.006207   -0.059302    0.071715
  (g-gl).g = 0.593E-01      g.g   = 0.593E-01  gl.gl    = 0.000E+00
 g(Force)  = 0.593E-01   g(Stress)= 0.000E+00 ortho     = 0.000E+00
 gamma     =   0.00000
 trial     =   1.00000
 opt step  =   0.44195  (harmonic =   0.45263) maximal distance =0.00806397
 next E    =   -40.341037   (d E  =  -0.01302)


--------------------------------------------------------------------------------------------------------


    WAVPRE:  cpu time    0.13: real time    0.13
    FEWALD:  cpu time    0.00: real time    0.00
    ORTHCH:  cpu time    0.01: real time    0.02
     LOOP+:  cpu time    6.39: real time    6.53


----------------------------------------- Iteration    3(   1)  ---------------------------------------


    POTLOK:  cpu time    0.54: real time    0.54
    SETDIJ:  cpu time    0.02: real time    0.02
     EDDAV:  cpu time    0.36: real time    0.36
       DOS:  cpu time    0.00: real time    0.00
    CHARGE:  cpu time    0.08: real time    0.08
    MIXING:  cpu time    0.02: real time    0.02
    --------------------------------------------
      LOOP:  cpu time    1.02: real time    1.02

 eigenvalue-minimisations  :    28
 total energy-change (2. order) :-0.2257717E-01  (-0.7276442E-01)
 number of electron      14.0000063 magnetization 
 augmentation part        0.3048745 magnetization 

 Broyden mixing:
  rms(total) = 0.32289E-01    rms(broyden)= 0.32228E-01
  rms(prec ) = 0.46040E-01
  weight for this iteration     100.00

 Free energy of the ion-electron system (eV)
  ---------------------------------------------------
  alpha Z        PSCENC =         1.51367591
  Ewald energy   TEWEN  =       236.14902001
  -1/2 Hartree   DENC   =      -534.91237045
  -exchange  EXHF       =         0.00000000
  -V(xc)+E(xc)   XCENC  =        45.24019639
  PAW double counting   =       162.66074804     -165.24116068
  entropy T*S    EENTRO =         0.00000000
  eigenvalues    EBANDS =      -154.22799081
  atomic energy  EATOM  =       368.47445962
  ---------------------------------------------------
  free energy    TOTEN  =       -40.34342197 eV

  energy without entropy =      -40.34342197  energy(sigma->0) =      -40.34342197


--------------------------------------------------------------------------------------------------------




----------------------------------------- Iteration    3(   2)  ---------------------------------------


    POTLOK:  cpu time    0.55: real time    0.55
    SETDIJ:  cpu time    0.02: real time    0.02
     EDDAV:  cpu time    0.32: real time    0.32
       DOS:  cpu time    0.00: real time    0.00
    CHARGE:  cpu time    0.08: real time    0.08
    MIXING:  cpu time    0.02: real time    0.02
    --------------------------------------------
      LOOP:  cpu time    0.99: real time    0.99

 eigenvalue-minimisations  :    24
 total energy-change (2. order) : 0.1766147E-02  (-0.1159541E-02)
 number of electron      14.0000063 magnetization 
 augmentation part        0.3047304 magnetization 

 Broyden mixing:
  rms(total) = 0.17635E-01    rms(broyden)= 0.17629E-01
  rms(prec ) = 0.24170E-01
  weight for this iteration     100.00

 eigenvalues of (default mixing * dielectric matrix)
  average eigenvalue GAMMA=   2.0123
  2.0123

 Free energy of the ion-electron system (eV)
  ---------------------------------------------------
  alpha Z        PSCENC =         1.51367591
  Ewald energy   TEWEN  =       236.14902001
  -1/2 Hartree   DENC   =      -535.59518839
  -exchange  EXHF       =         0.00000000
  -V(xc)+E(xc)   XCENC  =        45.27979704
  PAW double counting   =       164.31209590     -166.90034690
  entropy T*S    EENTRO =         0.00000000
  eigenvalues    EBANDS =      -153.57516901
  atomic energy  EATOM  =       368.47445962
  ---------------------------------------------------
  free energy    TOTEN  =       -40.34165582 eV

  energy without entropy =      -40.34165582  energy(sigma->0) =      -40.34165582


--------------------------------------------------------------------------------------------------------




----------------------------------------- Iteration    3(   3)  ---------------------------------------


    POTLOK:  cpu time    0.57: real time    0.57
    SETDIJ:  cpu time    0.02: real time    0.02
     EDDAV:  cpu time    0.36: real time    0.36
       DOS:  cpu time    0.00: real time    0.00
    CHARGE:  cpu time    0.08: real time    0.08
    MIXING:  cpu time    0.02: real time    0.02
    --------------------------------------------
      LOOP:  cpu time    1.05: real time    1.06

 eigenvalue-minimisations  :    28
 total energy-change (2. order) : 0.5636709E-03  (-0.5099036E-03)
 number of electron      14.0000063 magnetization 
 augmentation part        0.3040210 magnetization 

 Broyden mixing:
  rms(total) = 0.52101E-02    rms(broyden)= 0.52025E-02
  rms(prec ) = 0.78904E-02
  weight for this iteration     100.00

 eigenvalues of (default mixing * dielectric matrix)
  average eigenvalue GAMMA=   1.3729
  1.1560  1.5898

 Free energy of the ion-electron system (eV)
  ---------------------------------------------------
  alpha Z        PSCENC =         1.51367591
  Ewald energy   TEWEN  =       236.14902001
  -1/2 Hartree   DENC   =      -536.20533034
  -exchange  EXHF       =         0.00000000
  -V(xc)+E(xc)   XCENC  =        45.31600927
  PAW double counting   =       165.94409031     -168.53959139
  entropy T*S    EENTRO =         0.00000000
  eigenvalues    EBANDS =      -152.99342553
  atomic energy  EATOM  =       368.47445962
  ---------------------------------------------------
  free energy    TOTEN  =       -40.34109215 eV

  energy without entropy =      -40.34109215  energy(sigma->0) =      -40.34109215


--------------------------------------------------------------------------------------------------------




----------------------------------------- Iteration    3(   4)  ---------------------------------------


    POTLOK:  cpu time    0.57: real time    0.57
    SETDIJ:  cpu time    0.02: real time    0.02
     EDDAV:  cpu time    0.38: real time    0.39
       DOS:  cpu time    0.00: real time    0.00
    --------------------------------------------
      LOOP:  cpu time    0.97: real time    1.00

 eigenvalue-minimisations  :    28
 total energy-change (2. order) : 0.6375832E-04  (-0.5516221E-04)
 number of electron      14.0000063 magnetization 
 augmentation part        0.3040210 magnetization 

 Free energy of the ion-electron system (eV)
  ---------------------------------------------------
  alpha Z        PSCENC =         1.51367591
  Ewald energy   TEWEN  =       236.14902001
  -1/2 Hartree   DENC   =      -536.03012348
  -exchange  EXHF       =         0.00000000
  -V(xc)+E(xc)   XCENC  =        45.30796844
  PAW double counting   =       165.67864244     -168.27172469
  entropy T*S    EENTRO =         0.00000000
  eigenvalues    EBANDS =      -153.16294664
  atomic energy  EATOM  =       368.47445962
  ---------------------------------------------------
  free energy    TOTEN  =       -40.34102839 eV

  energy without entropy =      -40.34102839  energy(sigma->0) =      -40.34102839


--------------------------------------------------------------------------------------------------------




 average (electrostatic) potential at core
  the test charge radii are     0.5201  0.6991
  (the norm of the test charge is              1.0000)
       1 -40.9400       2 -40.9387       3 -40.9387       4 -40.9400       5 -40.9387
       6 -40.9387       7 -58.0149       8 -58.0149
 
 
 
 E-fermi :  -6.6078     XC(G=0):  -1.8144     alpha+bet : -0.7157


 k-point   1 :       0.0000    0.0000    0.0000
  band No.  band energies     occupation 
      1     -18.2010      2.00000
      2     -14.5436      2.00000
      3     -10.0625      2.00000
      4     -10.0614      2.00000
      5      -8.5259      2.00000
      6      -7.5938      2.00000
      7      -7.5933      2.00000
      8      -0.5894      0.00000
      9       1.3451      0.00000
     10       1.3779      0.00000
     11       1.4119      0.00000
     12       1.5077      0.00000


--------------------------------------------------------------------------------------------------------


 soft charge-density along one line, spin component           1
         0         1         2         3         4         5         6         7         8         9
 total charge-density along one line
 
 pseudopotential strength for first ion, spin component:           1
 -2.334  -0.010   0.002   0.001   0.000
 -0.010   0.049   0.002   0.001   0.000
  0.002   0.002  -0.335   0.002   0.000
  0.001   0.001   0.002  -0.339   0.000
  0.000   0.000   0.000   0.000  -0.340
 total augmentation occupancy for first ion, spin component:           1
  1.718  -0.731  -0.248  -0.099   0.000
 -0.731   0.363   0.118   0.048   0.000
 -0.248   0.118   0.040   0.013   0.000
[...]
  in kB     -12.38497   -12.43981   -10.45901     0.00000    -0.08872     0.00000
  external pressure =      -11.76 kB  Pullay stress =        0.00 kB


 VOLUME and BASIS-vectors are now :
 -----------------------------------------------------------------------------
  energy-cutoff  :      300.00
  volume of cell :      512.00
      direct lattice vectors                 reciprocal lattice vectors
     8.000000000  0.000000000  0.000000000     0.125000000  0.000000000  0.000000000
     0.000000000  8.000000000  0.000000000     0.000000000  0.125000000  0.000000000
     0.000000000  0.000000000  8.000000000     0.000000000  0.000000000  0.125000000

  length of vectors
     8.000000000  8.000000000  8.000000000     0.125000000  0.125000000  0.125000000


 FORCES acting on ions
    electron-ion (+dipol)            ewald-force                    non-local-force                 convergence-correction
 -----------------------------------------------------------------------------------------------
   0.376E-15 -.527E+02 -.285E+02   -.455E-15 0.576E+02 0.304E+02   0.265E-22 -.489E+01 -.190E+01   0.102E-13 0.717E-02 0.763E-02
   0.457E+02 0.264E+02 -.285E+02   -.499E+02 -.288E+02 0.304E+02   0.424E+01 0.245E+01 -.190E+01   -.622E-02 -.356E-02 0.760E-02
   -.457E+02 0.264E+02 -.285E+02   0.499E+02 -.288E+02 0.304E+02   -.424E+01 0.245E+01 -.190E+01   0.622E-02 -.356E-02 0.760E-02
   -.117E-15 0.527E+02 0.285E+02   -.920E-15 -.576E+02 -.304E+02   -.265E-22 0.489E+01 0.190E+01   0.504E-14 -.717E-02 -.763E-02
   0.457E+02 -.264E+02 0.285E+02   -.499E+02 0.288E+02 -.304E+02   0.424E+01 -.245E+01 0.190E+01   -.622E-02 0.356E-02 -.760E-02
   -.457E+02 -.264E+02 0.285E+02   0.499E+02 0.288E+02 -.304E+02   -.424E+01 -.245E+01 0.190E+01   0.622E-02 0.356E-02 -.760E-02
   0.980E-16 -.226E-01 -.728E+02   -.109E-13 0.212E-01 0.729E+02   0.106E-21 0.600E-02 -.396E+00   0.480E-13 -.666E-04 0.443E-01
   -.364E-14 0.226E-01 0.728E+02   -.176E-13 -.212E-01 -.729E+02   -.106E-21 -.600E-02 0.396E+00   0.380E-13 0.666E-04 -.443E-01
 -----------------------------------------------------------------------------------------------
   -.600E-12 0.910E-12 0.243E-11   -.721E-14 0.552E-14 0.000E+00   0.000E+00 0.000E+00 -.444E-15   0.120E-12 0.572E-14 -.249E-12
 
 
 POSITION                                       TOTAL-FORCE (eV/Angst)
 -----------------------------------------------------------------------------------
      0.00000      1.03484      1.16594         0.000000     -0.080513      0.024043
      7.10358      7.48285      1.16521         0.065659      0.040620      0.020228
      0.89642      7.48285      1.16521        -0.065659      0.040620      0.020228
      0.00000      6.96516      6.83406         0.000000      0.080513     -0.024043
      7.10358      0.51715      6.83479         0.065659     -0.040620     -0.020228
      0.89642      0.51715      6.83479        -0.065659     -0.040620     -0.020228
      0.00000      0.00014      0.76938         0.000000      0.004534     -0.246370
      0.00000     -0.00014      7.23062         0.000000     -0.004534      0.246370
 -----------------------------------------------------------------------------------
    total drift:                                0.000000      0.000000      0.000000


--------------------------------------------------------------------------------------------------------



  FREE ENERGIE OF THE ION-ELECTRON SYSTEM (eV)
  ---------------------------------------------------
  free  energy   TOTEN  =       -40.343613 eV

  energy  without entropy=      -40.343613  energy(sigma->0) =      -40.343613
 
 d Force = 0.2660130E-02[-0.961E-02, 0.149E-01]  d Energy = 0.2584999E-02 0.751E-04
 d Force = 0.5472015E+01[ 0.542E+01, 0.552E+01]  d Ewald  = 0.5471635E+01 0.380E-03


--------------------------------------------------------------------------------------------------------


    POTLOK:  cpu time    0.59: real time    0.59


--------------------------------------------------------------------------------------------------------


 Conjugate gradient step on ions:
 trial-energy change:   -0.002585  1 .order   -0.002660   -0.014929    0.009609
  (g-gl).g = 0.174E-01      g.g   = 0.169E-01  gl.gl    = 0.593E-01
 g(Force)  = 0.169E-01   g(Stress)= 0.000E+00 ortho     =-0.487E-03
 gamma     =   0.29401
 trial     =   0.88839
 opt step  =   0.54050  (harmonic =   0.54050) maximal distance =0.00804890
 next E    =   -40.345570   (d E  =  -0.00454)


--------------------------------------------------------------------------------------------------------


    WAVPRE:  cpu time    0.13: real time    0.13
    FEWALD:  cpu time    0.00: real time    0.00
    ORTHCH:  cpu time    0.02: real time    0.02
     LOOP+:  cpu time    6.59: real time    6.78


----------------------------------------- Iteration    5(   1)  ---------------------------------------


    POTLOK:  cpu time    0.57: real time    0.57
    SETDIJ:  cpu time    0.02: real time    0.02
     EDDAV:  cpu time    0.32: real time    0.32
       DOS:  cpu time    0.00: real time    0.00
    CHARGE:  cpu time    0.08: real time    0.08
    MIXING:  cpu time    0.02: real time    0.02
    --------------------------------------------
      LOOP:  cpu time    1.01: real time    1.01

 eigenvalue-minimisations  :    24
 total energy-change (2. order) :-0.2192388E-02  (-0.1570883E-01)
 number of electron      14.0000068 magnetization 
 augmentation part        0.3020997 magnetization 

 Broyden mixing:
  rms(total) = 0.10208E-01    rms(broyden)= 0.10153E-01
  rms(prec ) = 0.15780E-01
  weight for this iteration     100.00

 Free energy of the ion-electron system (eV)
  ---------------------------------------------------
  alpha Z        PSCENC =         1.51367591
  Ewald energy   TEWEN  =       232.80773442
  -1/2 Hartree   DENC   =      -532.67158579
  -exchange  EXHF       =         0.00000000
  -V(xc)+E(xc)   XCENC  =        45.20337919
  PAW double counting   =       163.14029298     -165.72129683
  entropy T*S    EENTRO =         0.00000000
  eigenvalues    EBANDS =      -153.09243862
  atomic energy  EATOM  =       368.47445962
  ---------------------------------------------------
  free energy    TOTEN  =       -40.34577913 eV

  energy without entropy =      -40.34577913  energy(sigma->0) =      -40.34577913


--------------------------------------------------------------------------------------------------------




----------------------------------------- Iteration    5(   2)  ---------------------------------------


    POTLOK:  cpu time    0.57: real time    0.57
    SETDIJ:  cpu time    0.02: real time    0.02
     EDDAV:  cpu time    0.32: real time    0.32
       DOS:  cpu time    0.00: real time    0.00
    CHARGE:  cpu time    0.07: real time    0.08
    MIXING:  cpu time    0.02: real time    0.02
    --------------------------------------------
      LOOP:  cpu time    1.01: real time    1.02

 eigenvalue-minimisations  :    24
 total energy-change (2. order) : 0.2869901E-03  (-0.1254277E-03)
 number of electron      14.0000068 magnetization 
 augmentation part        0.3020422 magnetization 

 Broyden mixing:
  rms(total) = 0.56002E-02    rms(broyden)= 0.55956E-02
  rms(prec ) = 0.82621E-02
  weight for this iteration     100.00

 eigenvalues of (default mixing * dielectric matrix)
  average eigenvalue GAMMA=   2.0960
  2.0960

 Free energy of the ion-electron system (eV)
  ---------------------------------------------------
  alpha Z        PSCENC =         1.51367591
  Ewald energy   TEWEN  =       232.80773442
  -1/2 Hartree   DENC   =      -532.90555335
  -exchange  EXHF       =         0.00000000
  -V(xc)+E(xc)   XCENC  =        45.21282971
  PAW double counting   =       163.69923365     -166.28300145
  entropy T*S    EENTRO =         0.00000000
  eigenvalues    EBANDS =      -152.86487065
  atomic energy  EATOM  =       368.47445962
  ---------------------------------------------------
  free energy    TOTEN  =       -40.34549214 eV

  energy without entropy =      -40.34549214  energy(sigma->0) =      -40.34549214


--------------------------------------------------------------------------------------------------------




----------------------------------------- Iteration    5(   3)  ---------------------------------------


    POTLOK:  cpu time    0.57: real time    0.57
    SETDIJ:  cpu time    0.02: real time    0.02
     EDDAV:  cpu time    0.36: real time    0.36
       DOS:  cpu time    0.00: real time    0.00
    CHARGE:  cpu time    0.08: real time    0.08
    MIXING:  cpu time    0.02: real time    0.02
    --------------------------------------------
      LOOP:  cpu time    1.05: real time    1.06

 eigenvalue-minimisations  :    28
 total energy-change (2. order) : 0.2152056E-04  (-0.1279464E-03)
 number of electron      14.0000068 magnetization 
 augmentation part        0.3017033 magnetization 

 Broyden mixing:
  rms(total) = 0.28837E-02    rms(broyden)= 0.28767E-02
  rms(prec ) = 0.47832E-02
  weight for this iteration     100.00

 eigenvalues of (default mixing * dielectric matrix)
  average eigenvalue GAMMA=   1.1811
  1.7129  0.6493

 Free energy of the ion-electron system (eV)
  ---------------------------------------------------
  alpha Z        PSCENC =         1.51367591
  Ewald energy   TEWEN  =       232.80773442
  -1/2 Hartree   DENC   =      -533.13448058
  -exchange  EXHF       =         0.00000000
  -V(xc)+E(xc)   XCENC  =        45.22220908
  PAW double counting   =       164.27356366     -166.86042632
  entropy T*S    EENTRO =         0.00000000
  eigenvalues    EBANDS =      -152.64220641
  atomic energy  EATOM  =       368.47445962
  ---------------------------------------------------
  free energy    TOTEN  =       -40.34547062 eV

  energy without entropy =      -40.34547062  energy(sigma->0) =      -40.34547062


--------------------------------------------------------------------------------------------------------




----------------------------------------- Iteration    5(   4)  ---------------------------------------


    POTLOK:  cpu time    0.57: real time    0.57
    SETDIJ:  cpu time    0.02: real time    0.02
     EDDAV:  cpu time    0.39: real time    0.39
       DOS:  cpu time    0.00: real time    0.00
    --------------------------------------------
      LOOP:  cpu time    0.98: real time    1.00

 eigenvalue-minimisations  :    32
 total energy-change (2. order) : 0.3159133E-04  (-0.1377747E-04)
 number of electron      14.0000068 magnetization 
 augmentation part        0.3017033 magnetization 

 Free energy of the ion-electron system (eV)
  ---------------------------------------------------
  alpha Z        PSCENC =         1.51367591
  Ewald energy   TEWEN  =       232.80773442
  -1/2 Hartree   DENC   =      -533.05911262
  -exchange  EXHF       =         0.00000000
  -V(xc)+E(xc)   XCENC  =        45.21932764
  PAW double counting   =       164.14910054     -166.73499604
  entropy T*S    EENTRO =         0.00000000
  eigenvalues    EBANDS =      -152.71562850
  atomic energy  EATOM  =       368.47445962
  ---------------------------------------------------
  free energy    TOTEN  =       -40.34543903 eV

  energy without entropy =      -40.34543903  energy(sigma->0) =      -40.34543903


--------------------------------------------------------------------------------------------------------




 average (electrostatic) potential at core
  the test charge radii are     0.5201  0.6991
  (the norm of the test charge is              1.0000)
       1 -40.9228       2 -40.9225       3 -40.9225       4 -40.9228       5 -40.9225
       6 -40.9225       7 -58.0286       8 -58.0286
 
 
 
 E-fermi :  -6.6444     XC(G=0):  -1.8200     alpha+bet : -0.7157


 k-point   1 :       0.0000    0.0000    0.0000
  band No.  band energies     occupation 
      1     -18.1124      2.00000
      2     -14.5262      2.00000
      3     -10.0254      2.00000
      4     -10.0243      2.00000
      5      -8.4263      2.00000
      6      -7.6223      2.00000
      7      -7.6209      2.00000
      8      -0.5904      0.00000
      9       1.3404      0.00000
     10       1.3805      0.00000
     11       1.4126      0.00000
     12       1.5154      0.00000


--------------------------------------------------------------------------------------------------------


 soft charge-density along one line, spin component           1
         0         1         2         3         4         5         6         7         8         9
 total charge-density along one line
 
 pseudopotential strength for first ion, spin component:           1
 -2.334  -0.010   0.002   0.001   0.000
 -0.010   0.049   0.002   0.001   0.000
  0.002   0.002  -0.336   0.002   0.000
  0.001   0.001   0.002  -0.339   0.000
  0.000   0.000   0.000   0.000  -0.340
 total augmentation occupancy for first ion, spin component:           1
  1.711  -0.729  -0.247  -0.097   0.000
 -0.729   0.362   0.118   0.047   0.000
 -0.247   0.118   0.040   0.013   0.000
 -0.097   0.047   0.013   0.013   0.000
  0.000   0.000   0.000   0.000   0.008


------------------------ aborting loop because EDIFF is reached ----------------------------------------


    CHARGE:  cpu time    0.07: real time    0.07
    FORLOC:  cpu time    0.08: real time    0.08
    FORNL :  cpu time    0.08: real time    0.08
    STRESS:  cpu time    0.20: real time    0.20
    FORHAR:  cpu time    0.22: real time    0.23
    MIXING:  cpu time    0.02: real time    0.02

  FORCE on cell =-STRESS in cart. coord.  units (eV):
  Direction    XX          YY          ZZ          XY          YZ          ZX
  --------------------------------------------------------------------------------------
  Alpha Z     1.51368     1.51368     1.51368
  Ewald      16.13306    16.03374   200.64074     0.00000    -0.07946     0.00000
  Hartree   129.55902   129.51837   273.91287     0.00000    -0.09734     0.00000
  E(xc)     -47.77792   -47.77839   -47.72035     0.00000     0.00047     0.00000
  Local    -258.17323  -258.06107  -592.69665     0.00000     0.17989     0.00000
  n-local   -25.80696   -25.81229   -24.52876     0.00004    -0.00326     0.00000
  augment     0.01673     0.01590     0.06747     0.00000    -0.00010     0.00000
  Kinetic   180.68334   180.70129   185.83789    -0.00010    -0.02439     0.00000
  Fock        0.00000     0.00000     0.00000     0.00000     0.00000     0.00000
  -------------------------------------------------------------------------------------
  Total      -3.85228    -3.86878    -2.97311     0.00000    -0.02419     0.00000
  in kB     -12.05475   -12.10638    -9.30362     0.00000    -0.07571     0.00000
  external pressure =      -11.15 kB  Pullay stress =        0.00 kB


 VOLUME and BASIS-vectors are now :
 -----------------------------------------------------------------------------
  energy-cutoff  :      300.00
  volume of cell :      512.00
      direct lattice vectors                 reciprocal lattice vectors
     8.000000000  0.000000000  0.000000000     0.125000000  0.000000000  0.000000000
     0.000000000  8.000000000  0.000000000     0.000000000  0.125000000  0.000000000
     0.000000000  0.000000000  8.000000000     0.000000000  0.000000000  0.125000000

  length of vectors
     8.000000000  8.000000000  8.000000000     0.125000000  0.125000000  0.125000000


 FORCES acting on ions
    electron-ion (+dipol)            ewald-force                    non-local-force                 convergence-correction
 -----------------------------------------------------------------------------------------------
   -.732E-15 -.528E+02 -.288E+02   0.116E-14 0.577E+02 0.307E+02   0.000E+00 -.490E+01 -.193E+01   0.958E-15 -.383E-02 -.165E-02
   0.458E+02 0.265E+02 -.287E+02   -.500E+02 -.289E+02 0.307E+02   0.424E+01 0.245E+01 -.193E+01   0.333E-02 0.195E-02 -.170E-02
   -.458E+02 0.265E+02 -.287E+02   0.500E+02 -.289E+02 0.307E+02   -.424E+01 0.245E+01 -.193E+01   -.333E-02 0.195E-02 -.170E-02
   -.194E-15 0.528E+02 0.288E+02   0.431E-15 -.577E+02 -.307E+02   0.000E+00 0.490E+01 0.193E+01   0.103E-13 0.383E-02 0.165E-02
   0.458E+02 -.265E+02 0.287E+02   -.500E+02 0.289E+02 -.307E+02   0.424E+01 -.245E+01 0.193E+01   0.333E-02 -.195E-02 0.170E-02
   -.458E+02 -.265E+02 0.287E+02   0.500E+02 0.289E+02 -.307E+02   -.424E+01 -.245E+01 0.193E+01   -.333E-02 -.195E-02 0.170E-02
   -.172E-14 -.220E-01 -.736E+02   -.794E-14 0.199E-01 0.739E+02   0.000E+00 0.417E-02 -.261E+00   0.147E-14 -.116E-03 -.747E-02
   -.733E-16 0.220E-01 0.736E+02   -.901E-14 -.199E-01 -.739E+02   0.000E+00 -.417E-02 0.261E+00   0.360E-13 0.116E-03 0.747E-02
 -----------------------------------------------------------------------------------------------
   0.408E-13 0.876E-12 0.249E-11   -.273E-14 0.347E-16 0.000E+00   -.888E-15 0.000E+00 0.000E+00   0.567E-13 0.155E-12 -.107E-12
 
 
 POSITION                                       TOTAL-FORCE (eV/Angst)
 -----------------------------------------------------------------------------------
      0.00000      1.03178      1.16409         0.000000     -0.015020      0.038897
      7.10627      7.48429      1.16357         0.010415      0.009647      0.032937
      0.89373      7.48429      1.16357        -0.010415      0.009647      0.032937
      0.00000      6.96822      6.83591         0.000000      0.015020     -0.038897
      7.10627      0.51571      6.83643         0.010415     -0.009647     -0.032937
      0.89373      0.51571      6.83643        -0.010415     -0.009647     -0.032937
      0.00000      0.00015      0.76420         0.000000      0.001950     -0.007674
      0.00000     -0.00015      7.23580         0.000000     -0.001950      0.007674
 -----------------------------------------------------------------------------------
    total drift:                                0.000000      0.000000      0.000000


--------------------------------------------------------------------------------------------------------



  FREE ENERGIE OF THE ION-ELECTRON SYSTEM (eV)
  ---------------------------------------------------
  free  energy   TOTEN  =       -40.345439 eV

  energy  without entropy=      -40.345439  energy(sigma->0) =      -40.345439
 
 d Force = 0.1870598E-02[-0.216E-04, 0.376E-02]  d Energy = 0.1825641E-02 0.450E-04
 d Force =-0.2130372E+01[-0.214E+01,-0.212E+01]  d Ewald  =-0.2130349E+01-0.223E-04


--------------------------------------------------------------------------------------------------------


    POTLOK:  cpu time    0.59: real time    0.59


--------------------------------------------------------------------------------------------------------




--------------------------------------------------------------------------------------------------------


  
 reached required accuracy - stopping structural energy minimisation
 writing wavefunctions
     LOOP+:  cpu time    5.34: real time    5.43
    4ORBIT:  cpu time    0.00: real time    0.00

 total amount of memory used by VASP on root node    68996. kBytes
========================================================================

   base      :      30000. kBytes
   nonl-proj :       1543. kBytes
   fftplans  :      13060. kBytes
   grid      :      23203. kBytes
   one-center:         24. kBytes
   wavefun   :       1166. kBytes
 
  
  
 General timing and accounting informations for this job:
 ========================================================
  
                  Total CPU time used (sec):       43.688
                            User time (sec):       43.006
                          System time (sec):        0.682
                         Elapsed time (sec):       44.687
  
                   Maximum memory used (kb):           0.
                   Average memory used (kb):           0.
  
                          Minor page faults:       203582
                          Major page faults:            0
                 Voluntary context switches:         1743
