 running on    1 nodes
 distr:  one band on    1 nodes,    1 groups
 vasp.5.2.12 11Nov11 complex                                                    
  
 POSCAR found :  2 types and       5 ions
 LDA part: xc-table for Pade appr. of Perdew
 POSCAR, INCAR and KPOINTS ok, starting setup
 WARNING: small aliasing (wrap around) errors must be expected
 FFT: planning ...(           1 )
 WAVECAR not read
 entering main loop
       N       E                     dE             d eps       ncg     rms          rms(c)
DAV:   1     0.295112023708E+03    0.29511E+03   -0.11823E+04    56   0.101E+03
DAV:   2     0.287955085091E+02   -0.26632E+03   -0.25635E+03    64   0.228E+02
DAV:   3    -0.265398713820E+02   -0.55335E+02   -0.55216E+02    40   0.128E+02
DAV:   4    -0.275344558755E+02   -0.99458E+00   -0.98830E+00    48   0.203E+01
DAV:   5    -0.275540225879E+02   -0.19567E-01   -0.19550E-01    48   0.262E+00    0.899E+00
DAV:   6    -0.258427730786E+02    0.17112E+01   -0.84061E+00    48   0.204E+01    0.373E+00
DAV:   7    -0.258232449299E+02    0.19528E-01   -0.34354E-01    40   0.472E+00    0.207E+00
DAV:   8    -0.258403418872E+02   -0.17097E-01   -0.45997E-02    56   0.201E+00    0.253E-01
DAV:   9    -0.258415387698E+02   -0.11969E-02   -0.80790E-03    40   0.668E-01    0.110E-01
DAV:  10    -0.258418274262E+02   -0.28866E-03   -0.49321E-04    48   0.236E-01    0.215E-02
DAV:  11    -0.258419187759E+02   -0.91350E-04   -0.56309E-05    24   0.635E-02
   1 F= -.25841919E+02 E0= -.25853515E+02  d E =0.347874E-01
 writing wavefunctions
NPROCS =  1
