   5   5   0   0
  0.1024000E+03  0.8000000E-09  0.8000000E-09  0.8000000E-09  0.5000000E-15
  1.000000000000000E-004
  CAR 
 unknown system                          
      3.99244450    -36.22032521  301     -9.57567190      1.00000000
    -36.220  0.0000E+00  0.0000E+00
    -36.086  0.0000E+00  0.0000E+00
    -35.952 -0.9879E-31 -0.1324E-31
    -35.818 -0.6393E-26 -0.8570E-27
    -35.684 -0.1673E-21 -0.2243E-22
    -35.550 -0.1768E-17 -0.2370E-18
    -35.416 -0.7530E-14 -0.1010E-14
    -35.282 -0.1244E-10 -0.1669E-11
    -35.148 -0.8440E-08 -0.1133E-08
    -35.014 -0.2266E-05 -0.3049E-06
    -34.880 -0.2370E-03 -0.3208E-04
    -34.746 -0.9346E-02 -0.1285E-02
    -34.612 -0.1269E+00 -0.1830E-01
    -34.478 -0.3843E+00 -0.6981E-01
    -34.344  0.1602E+01  0.1450E+00
    -34.210  0.7049E+01  0.1090E+01
    -34.076  0.6309E+01  0.1936E+01
    -33.942  0.9583E+00  0.2064E+01
    -33.808 -0.3810E+00  0.2013E+01
    -33.674 -0.9083E-01  0.2001E+01
    -33.539 -0.5580E-02  0.2000E+01
    -33.405 -0.1208E-03  0.2000E+01
    -33.271 -0.9926E-06  0.2000E+01
    -33.137 -0.3189E-08  0.2000E+01
    -33.003 -0.4062E-11  0.2000E+01
    -32.869 -0.3313E-14  0.2000E+01
    -32.735 -0.3340E-23  0.2000E+01
    -32.601 -0.5574E-19  0.2000E+01
    -32.467 -0.3754E-15  0.2000E+01
    -32.333 -0.9855E-12  0.2000E+01
    -32.199 -0.1064E-08  0.2000E+01
    -32.065 -0.4561E-06  0.2000E+01
    -31.931 -0.7692E-04  0.2000E+01
    -31.797 -0.4989E-02  0.1999E+01
    -31.663 -0.1181E+00  0.1983E+01
    -31.529 -0.8578E+00  0.1869E+01
    -31.395  0.9607E-01  0.1881E+01
    -31.261  0.1296E+02  0.3618E+01
    -31.127  0.2378E+02  0.6806E+01
    -30.993  0.1025E+02  0.8180E+01
    -30.859 -0.5628E+00  0.8105E+01
    -30.725 -0.6986E+00  0.8011E+01
    -30.591 -0.7847E-01  0.8000E+01
    -30.456 -0.2830E-02  0.8000E+01
    -30.322 -0.3769E-04  0.8000E+01
    -30.188 -0.1939E-06  0.8000E+01
    -30.054 -0.3932E-09  0.8000E+01
    -29.920 -0.3181E-12  0.8000E+01
    -29.786  0.0000E+00  0.8000E+01
    -29.652  0.0000E+00  0.8000E+01
    -29.518  0.0000E+00  0.8000E+01
    -29.384  0.0000E+00  0.8000E+01
    -29.250  0.0000E+00  0.8000E+01
    -29.116  0.0000E+00  0.8000E+01
    -28.982  0.0000E+00  0.8000E+01
    -28.848  0.0000E+00  0.8000E+01
    -28.714  0.0000E+00  0.8000E+01
    -28.580  0.0000E+00  0.8000E+01
    -28.446  0.0000E+00  0.8000E+01
    -28.312  0.0000E+00  0.8000E+01
    -28.178  0.0000E+00  0.8000E+01
    -28.044  0.0000E+00  0.8000E+01
    -27.910  0.0000E+00  0.8000E+01
    -27.776  0.0000E+00  0.8000E+01
    -27.642  0.0000E+00  0.8000E+01
    -27.508  0.0000E+00  0.8000E+01
    -27.374  0.0000E+00  0.8000E+01
    -27.239  0.0000E+00  0.8000E+01
    -27.105  0.0000E+00  0.8000E+01
    -26.971  0.0000E+00  0.8000E+01
    -26.837  0.0000E+00  0.8000E+01
    -26.703  0.0000E+00  0.8000E+01
    -26.569  0.0000E+00  0.8000E+01
    -26.435  0.0000E+00  0.8000E+01
    -26.301  0.0000E+00  0.8000E+01
    -26.167  0.0000E+00  0.8000E+01
    -26.033  0.0000E+00  0.8000E+01
    -25.899  0.0000E+00  0.8000E+01
    -25.765  0.0000E+00  0.8000E+01
    -25.631  0.0000E+00  0.8000E+01
    -25.497  0.0000E+00  0.8000E+01
    -25.363  0.0000E+00  0.8000E+01
    -25.229  0.0000E+00  0.8000E+01
    -25.095  0.0000E+00  0.8000E+01
    -24.961  0.0000E+00  0.8000E+01
    -24.827  0.0000E+00  0.8000E+01
    -24.693  0.0000E+00  0.8000E+01
    -24.559  0.0000E+00  0.8000E+01
    -24.425  0.0000E+00  0.8000E+01
    -24.291  0.0000E+00  0.8000E+01
    -24.156  0.0000E+00  0.8000E+01
    -24.022  0.0000E+00  0.8000E+01
    -23.888  0.0000E+00  0.8000E+01
    -23.754  0.0000E+00  0.8000E+01
    -23.620  0.0000E+00  0.8000E+01
    -23.486  0.0000E+00  0.8000E+01
    -23.352  0.0000E+00  0.8000E+01
    -23.218  0.0000E+00  0.8000E+01
    -23.084  0.0000E+00  0.8000E+01
    -22.950  0.0000E+00  0.8000E+01
    -22.816  0.0000E+00  0.8000E+01
    -22.682  0.0000E+00  0.8000E+01
    -22.548  0.0000E+00  0.8000E+01
    -22.414  0.0000E+00  0.8000E+01
    -22.280  0.0000E+00  0.8000E+01
    -22.146  0.0000E+00  0.8000E+01
    -22.012  0.0000E+00  0.8000E+01
    -21.878  0.0000E+00  0.8000E+01
    -21.744  0.0000E+00  0.8000E+01
    -21.610  0.0000E+00  0.8000E+01
    -21.476  0.0000E+00  0.8000E+01
    -21.342  0.0000E+00  0.8000E+01
    -21.208  0.0000E+00  0.8000E+01
    -21.074  0.0000E+00  0.8000E+01
    -20.939  0.0000E+00  0.8000E+01
    -20.805  0.0000E+00  0.8000E+01
    -20.671  0.0000E+00  0.8000E+01
    -20.537  0.0000E+00  0.8000E+01
    -20.403  0.0000E+00  0.8000E+01
    -20.269  0.0000E+00  0.8000E+01
    -20.135  0.0000E+00  0.8000E+01
    -20.001  0.0000E+00  0.8000E+01
    -19.867  0.0000E+00  0.8000E+01
    -19.733  0.0000E+00  0.8000E+01
    -19.599  0.0000E+00  0.8000E+01
    -19.465  0.0000E+00  0.8000E+01
    -19.331  0.0000E+00  0.8000E+01
    -19.197 -0.3779E-27  0.8000E+01
    -19.063 -0.1255E-22  0.8000E+01
    -18.929 -0.1684E-18  0.8000E+01
    -18.795 -0.9115E-15  0.8000E+01
    -18.661 -0.1920E-11  0.8000E+01
    -18.527 -0.1659E-08  0.8000E+01
    -18.393 -0.5691E-06  0.8000E+01
    -18.259 -0.7647E-04  0.8000E+01
    -18.125 -0.3918E-02  0.7999E+01
    -17.991 -0.7159E-01  0.7990E+01
    -17.856 -0.3607E+00  0.7942E+01
    -17.722  0.6101E+00  0.8023E+01
    -17.588  0.5744E+01  0.8793E+01
    -17.454  0.7434E+01  0.9790E+01
    -17.320  0.2099E+01  0.1007E+02
    -17.186 -0.3602E+00  0.1002E+02
    -17.052 -0.1554E+00  0.1000E+02
    -16.918 -0.1294E-01  0.1000E+02
    -16.784 -0.3645E-03  0.1000E+02
    -16.650 -0.3851E-05  0.1000E+02
    -16.516 -0.1582E-07  0.1000E+02
    -16.382 -0.2609E-10  0.1000E+02
    -16.248 -0.4928E-09  0.1000E+02
    -16.114 -0.2355E-06  0.1000E+02
    -15.980 -0.4433E-04  0.1000E+02
    -15.846 -0.3221E-02  0.1000E+02
    -15.712 -0.8623E-01  0.9988E+01
    -15.578 -0.7342E+00  0.9890E+01
    -15.444 -0.4401E+00  0.9831E+01
    -15.310  0.1085E+02  0.1128E+02
    -15.176  0.2385E+02  0.1448E+02
    -15.042  0.1234E+02  0.1614E+02
    -14.908 -0.7856E-01  0.1613E+02
    -14.774 -0.8220E+00  0.1602E+02
    -14.639 -0.1080E+00  0.1600E+02
    -14.505 -0.4400E-02  0.1600E+02
    -14.371 -0.6564E-04  0.1600E+02
    -14.237 -0.3770E-06  0.1600E+02
    -14.103 -0.8518E-09  0.1600E+02
    -13.969 -0.7653E-12  0.1600E+02
    -13.835  0.0000E+00  0.1600E+02
    -13.701  0.0000E+00  0.1600E+02
    -13.567  0.0000E+00  0.1600E+02
    -13.433  0.0000E+00  0.1600E+02
    -13.299  0.0000E+00  0.1600E+02
    -13.165 -0.1598E-26  0.1600E+02
    -13.031 -0.4984E-22  0.1600E+02
    -12.897 -0.6282E-18  0.1600E+02
    -12.763 -0.3192E-14  0.1600E+02
    -12.629 -0.6309E-11  0.1600E+02
    -12.495 -0.5117E-08  0.1600E+02
    -12.361 -0.1646E-05  0.1600E+02
    -12.227 -0.2071E-03  0.1600E+02
    -12.093 -0.9913E-02  0.1600E+02
    -11.959 -0.1678E+00  0.1598E+02
    -11.825 -0.7507E+00  0.1588E+02
    -11.691  0.1666E+01  0.1610E+02
    -11.556  0.1223E+02  0.1774E+02
    -11.422  0.1409E+02  0.1963E+02
    -11.288  0.2375E+01  0.1994E+02
    -11.154  0.2460E+01  0.2027E+02
    -11.020  0.1912E+02  0.2284E+02
    -10.886  0.2074E+02  0.2562E+02
    -10.752  0.4400E+01  0.2621E+02
    -10.618 -0.1161E+01  0.2605E+02
    -10.484 -0.3578E+00  0.2600E+02
    -10.350 -0.2890E-01  0.2600E+02
    -10.216 -0.9174E-01  0.2599E+02
    -10.082 -0.7554E+00  0.2589E+02
     -9.948 -0.3608E+00  0.2584E+02
     -9.814  0.1121E+02  0.2734E+02
     -9.680  0.2387E+02  0.3054E+02
     -9.546  0.1198E+02  0.3214E+02
     -9.412 -0.1744E+00  0.3212E+02
     -9.278 -0.8008E+00  0.3201E+02
     -9.144 -0.1023E+00  0.3200E+02
     -9.010 -0.4083E-02  0.3200E+02
     -8.876 -0.5973E-04  0.3200E+02
     -8.742 -0.3366E-06  0.3200E+02
     -8.608 -0.7465E-09  0.3200E+02
     -8.474 -0.6560E-12  0.3200E+02
     -8.339  0.0000E+00  0.3200E+02
     -8.205  0.0000E+00  0.3200E+02
     -8.071  0.0000E+00  0.3200E+02
     -7.937  0.0000E+00  0.3200E+02
     -7.803  0.0000E+00  0.3200E+02
     -7.669  0.0000E+00  0.3200E+02
     -7.535  0.0000E+00  0.3200E+02
     -7.401  0.0000E+00  0.3200E+02
     -7.267  0.0000E+00  0.3200E+02
     -7.133  0.0000E+00  0.3200E+02
     -6.999  0.0000E+00  0.3200E+02
     -6.865  0.0000E+00  0.3200E+02
     -6.731  0.0000E+00  0.3200E+02
     -6.597  0.0000E+00  0.3200E+02
     -6.463  0.0000E+00  0.3200E+02
     -6.329  0.0000E+00  0.3200E+02
     -6.195  0.0000E+00  0.3200E+02
     -6.061  0.0000E+00  0.3200E+02
     -5.927  0.0000E+00  0.3200E+02
     -5.793  0.0000E+00  0.3200E+02
     -5.659  0.0000E+00  0.3200E+02
     -5.525  0.0000E+00  0.3200E+02
     -5.391  0.0000E+00  0.3200E+02
     -5.256  0.0000E+00  0.3200E+02
     -5.122  0.0000E+00  0.3200E+02
     -4.988  0.0000E+00  0.3200E+02
     -4.854  0.0000E+00  0.3200E+02
     -4.720  0.0000E+00  0.3200E+02
     -4.586  0.0000E+00  0.3200E+02
     -4.452  0.0000E+00  0.3200E+02
     -4.318  0.0000E+00  0.3200E+02
     -4.184  0.0000E+00  0.3200E+02
     -4.050  0.0000E+00  0.3200E+02
     -3.916  0.0000E+00  0.3200E+02
     -3.782  0.0000E+00  0.3200E+02
     -3.648  0.0000E+00  0.3200E+02
     -3.514  0.0000E+00  0.3200E+02
     -3.380  0.0000E+00  0.3200E+02
     -3.246  0.0000E+00  0.3200E+02
     -3.112  0.0000E+00  0.3200E+02
     -2.978  0.0000E+00  0.3200E+02
     -2.844  0.0000E+00  0.3200E+02
     -2.710  0.0000E+00  0.3200E+02
     -2.576  0.0000E+00  0.3200E+02
     -2.442  0.0000E+00  0.3200E+02
     -2.308  0.0000E+00  0.3200E+02
     -2.174  0.0000E+00  0.3200E+02
     -2.039 -0.1194E-30  0.3200E+02
     -1.905 -0.7614E-26  0.3200E+02
     -1.771 -0.1963E-21  0.3200E+02
     -1.637 -0.2044E-17  0.3200E+02
     -1.503 -0.8575E-14  0.3200E+02
     -1.369 -0.1396E-10  0.3200E+02
     -1.235 -0.9325E-08  0.3200E+02
     -1.101 -0.2465E-05  0.3200E+02
     -0.967 -0.2538E-03  0.3200E+02
     -0.833 -0.9845E-02  0.3200E+02
     -0.699 -0.1312E+00  0.3198E+02
     -0.565 -0.3821E+00  0.3193E+02
     -0.431  0.1677E+01  0.3215E+02
     -0.297  0.7116E+01  0.3311E+02
     -0.163  0.6223E+01  0.3394E+02
     -0.029  0.8994E+00  0.3406E+02
      0.105 -0.3785E+00  0.3401E+02
      0.239 -0.8756E-01  0.3400E+02
      0.373 -0.5282E-02  0.3400E+02
      0.507 -0.1125E-03  0.3400E+02
      0.641 -0.9100E-06  0.3400E+02
      0.775 -0.2879E-08  0.3400E+02
      0.909 -0.1584E-10  0.3400E+02
      1.044 -0.9596E-08  0.3400E+02
      1.178 -0.2985E-05  0.3400E+02
      1.312 -0.3631E-03  0.3400E+02
      1.446 -0.1677E-01  0.3400E+02
      1.580 -0.2728E+00  0.3396E+02
      1.714 -0.1143E+01  0.3381E+02
      1.848  0.2880E+01  0.3419E+02
      1.982  0.1893E+02  0.3673E+02
      2.116  0.2114E+02  0.3957E+02
      2.250  0.4801E+01  0.4021E+02
      2.384 -0.1153E+01  0.4005E+02
      2.518 -0.3805E+00  0.4000E+02
      2.652 -0.2800E-01  0.4000E+02
      2.786 -0.7097E-03  0.4000E+02
      2.920 -0.6781E-05  0.4000E+02
      3.054 -0.2525E-07  0.4000E+02
      3.188 -0.3721E-10  0.4000E+02
      3.322 -0.1988E-13  0.4000E+02
      3.456  0.0000E+00  0.4000E+02
      3.590  0.0000E+00  0.4000E+02
      3.724  0.0000E+00  0.4000E+02
      3.858  0.0000E+00  0.4000E+02
      3.992  0.0000E+00  0.4000E+02
