    5    5    1    1
  0.1024000E+03  0.8000000E-09  0.8000000E-09  0.8000000E-09  0.5000000E-15
  1.000000000000000E-004
  CAR 
 unknown system                          
   32    1   20
 
  0.0000000E+00  0.0000000E+00  0.0000000E+00  0.1000000E+01
   1      -34.220325
   2      -31.203845
   3      -31.203845
   4      -31.203845
   5      -17.563763
   6      -15.237100
   7      -15.237100
   8      -15.237100
   9      -11.541107
  10      -11.541107
  11      -11.013816
  12      -11.013816
  13      -11.013816
  14       -9.744048
  15       -9.744048
  16       -9.744048
  17       -0.309763
  18        1.992326
  19        1.992372
  20        1.992445
