 vasp.5.2.12 11Nov11 complex                                                    
  
 executed on             LinuxIFC date 2012.11.03  03:01:30
 running on    1 nodes
 distr:  one band on    1 nodes,    1 groups


--------------------------------------------------------------------------------------------------------


 INCAR:
 POTCAR:   PAW_PBE C 08Apr2002                    
 POTCAR:   PAW_PBE F 08Apr2002                    
 POTCAR:   PAW_PBE C 08Apr2002                    
   VRHFIN =C: s2p2                                                              
   LEXCH  = PE                                                                  
   EATOM  =   147.1560 eV,   10.8157 Ry                                         
                                                                                
   TITEL  = PAW_PBE C 08Apr2002                                                 
   LULTRA =        F    use ultrasoft PP ?                                      
   IUNSCR =        0    unscreen: 0-lin 1-nonlin 2-no                           
   RPACOR =     .000    partial core radius                                     
   POMASS =   12.011; ZVAL   =    4.000    mass and valenz                      
   RCORE  =    1.500    outmost cutoff radius                                   
   RWIGS  =    1.630; RWIGS  =     .863    wigner-seitz radius (au A)           
   ENMAX  =  400.000; ENMIN  =  300.000 eV                                      
   ICORE  =        2    local potential                                         
   LCOR   =        T    correct aug charges                                     
   LPAW   =        T    paw PP                                                  
   EAUG   =  644.873                                                            
   DEXC   =     .000                                                            
   RMAX   =    2.266    core radius for proj-oper                               
   RAUG   =    1.300    factor for augmentation sphere                          
   RDEP   =    1.501    radius for radial grids                                 
   RDEPT  =    1.300    core radius for aug-charge                              
   QCUT   =   -5.516; QGAM   =   11.032    optimization parameters              
                                                                                
   Description                                                                  
     l     E      TYP  RCUT    TYP  RCUT                                        
     0   .000     23  1.200                                                     
     0   .000     23  1.200                                                     
     1   .000     23  1.500                                                     
     1  2.500     23  1.500                                                     
     2   .000      7  1.500                                                     
  local pseudopotential read in
  atomic valenz-charges read in
  non local Contribution for L=           0  read in
    real space projection operators read in
  non local Contribution for L=           0  read in
    real space projection operators read in
  non local Contribution for L=           1  read in
    real space projection operators read in
  non local Contribution for L=           1  read in
    real space projection operators read in
    PAW grid and wavefunctions read in
 
   number of l-projection  operators is LMAX  =           4
   number of lm-projection operators is LMMAX =           8
 
 POTCAR:   PAW_PBE F 08Apr2002                    
   VRHFIN =F: s2p5                                                              
   LEXCH  = PE                                                                  
   EATOM  =   659.4942 eV,   48.4715 Ry                                         
                                                                                
   TITEL  = PAW_PBE F 08Apr2002                                                 
   LULTRA =        F    use ultrasoft PP ?                                      
   IUNSCR =        0    unscreen: 0-lin 1-nonlin 2-no                           
   RPACOR =     .000    partial core radius                                     
   POMASS =   18.998; ZVAL   =    7.000    mass and valenz                      
   RCORE  =    1.520    outmost cutoff radius                                   
   RWIGS  =    1.500; RWIGS  =     .794    wigner-seitz radius (au A)           
   ENMAX  =  400.000; ENMIN  =  300.000 eV                                      
   ICORE  =        2    local potential                                         
   LCOR   =        T    correct aug charges                                     
   LPAW   =        T    paw PP                                                  
   EAUG   =  613.614                                                            
   DEXC   =     .000                                                            
   RMAX   =    2.254    core radius for proj-oper                               
   RAUG   =    1.300    factor for augmentation sphere                          
   RDEP   =    1.539    radius for radial grids                                 
   QCUT   =   -5.545; QGAM   =   11.091    optimization parameters              
                                                                                
   Description                                                                  
     l     E      TYP  RCUT    TYP  RCUT                                        
     0   .000     23  1.200                                                     
     0  -.700     23  1.200                                                     
     1   .000     23  1.520                                                     
     1   .100     23  1.520                                                     
     2   .000      7  1.500                                                     
  local pseudopotential read in
  atomic valenz-charges read in
  non local Contribution for L=           0  read in
    real space projection operators read in
  non local Contribution for L=           0  read in
    real space projection operators read in
  non local Contribution for L=           1  read in
    real space projection operators read in
  non local Contribution for L=           1  read in
    real space projection operators read in
    PAW grid and wavefunctions read in
 
   number of l-projection  operators is LMAX  =           4
   number of lm-projection operators is LMMAX =           8
 
 PAW_PBE C 08Apr2002                    :
 energy of atom  1       EATOM= -147.1560
 kinetic energy error for atom=    0.0116 (will be added to EATOM!!)
 PAW_PBE F 08Apr2002                    :
 energy of atom  2       EATOM= -659.4942
 kinetic energy error for atom=    0.0654 (will be added to EATOM!!)
 
 
 POSCAR:  C  F                                   
  positions in cartesian coordinates
  No initial velocities read in
 exchange correlation table for  LEXCH =        8
   RHO(1)=    0.500       N(1)  =     2000
   RHO(2)=  100.500       N(2)  =     4000
 


--------------------------------------------------------------------------------------------------------


 ion  position               nearest neighbor table
   1  0.500  0.500  0.500-   2 1.33   3 1.33   4 1.33   5 1.33
   2  0.596  0.596  0.596-   1 1.33
   3  0.404  0.404  0.596-   1 1.33
   4  0.404  0.596  0.404-   1 1.33
   5  0.596  0.404  0.404-   1 1.33
 
  LATTYP: Found a simple cubic cell.
 ALAT       =     8.0000000000
  
  Lattice vectors:
  
 A1 = (   8.0000000000,   0.0000000000,   0.0000000000)
 A2 = (   0.0000000000,   8.0000000000,   0.0000000000)
 A3 = (   0.0000000000,   0.0000000000,   8.0000000000)
 Subroutine PRICEL returns:
 Original cell was already a primitive cell.
 

Analysis of symmetry for initial positions (statically):

 Routine SETGRP: Setting up the symmetry group for a 
 simple cubic supercell.


 Subroutine GETGRP returns: Found 24 space group operations
 (whereof 24 operations were pure point group operations)
 out of a pool of 48 trial point group operations.


The static configuration has the point symmetry T_d .

Analysis of symmetry for dynamics (positions and initial velocities):

 Subroutine DYNSYM returns: Found 24 space group operations
 (whereof 24 operations were pure point group operations)
 out of a pool of 24 trial space group operations
 (whereof 24 operations were pure point group operations)
 and found also     1 'primitive' translations


The dynamic configuration has the point symmetry T_d .
 
 
 KPOINTS: KPOINTS created by Atomic Simulation Env

Automatic generation of k-mesh.
 
 Subroutine IBZKPT returns following result:
 ===========================================
 
 Found      1 irreducible k-points:
 
 Following reciprocal coordinates:
            Coordinates               Weight
  0.000000  0.000000  0.000000      1.000000
 
 Following cartesian coordinates:
            Coordinates               Weight
  0.000000  0.000000  0.000000      1.000000
 


--------------------------------------------------------------------------------------------------------




 Dimension of arrays:
   k-points           NKPTS =      1   k-points in BZ     NKDIM =      1   number of bands    NBANDS=     20
   number of dos      NEDOS =    301   number of ions     NIONS =      5
   non local maximal  LDIM  =      4   non local SUM 2l+1 LMDIM =      8
   total plane-waves  NPLWV =  74088
   max r-space proj   IRMAX =      1   max aug-charges    IRDMAX=   2039
   dimension x,y,z NGX =    42 NGY =   42 NGZ =   42
   dimension x,y,z NGXF=    84 NGYF=   84 NGZF=   84
   support grid    NGXF=    84 NGYF=   84 NGZF=   84
   ions per type =               1   4
 NGX,Y,Z   is equivalent  to a cutoff of   8.73,  8.73,  8.73 a.u.
 NGXF,Y,Z  is equivalent  to a cutoff of  17.46, 17.46, 17.46 a.u.


 I would recommend the setting:
   dimension x,y,z NGX =    42 NGY =   42 NGZ =   42
 SYSTEM =  unknown system                          
 POSCAR =   C  F                                   

 Startparameter for this run:
   NWRITE =      2    write-flag & timer
   PREC   = normal    normal or accurate (medium, high low for compatibility)
   ISTART =      0    job   : 0-new  1-cont  2-samecut
   ICHARG =      2    charge: 1-file 2-atom 10-const
   ISPIN  =      1    spin polarized calculation?
   LNONCOLLINEAR =      F non collinear calculations
   LSORBIT =      F    spin-orbit coupling
   INIWAV =      1    electr: 0-lowe 1-rand  2-diag
   LASPH  =      F    aspherical Exc in radial PAW
   METAGGA=      F    non-selfconsistent MetaGGA calc.

 Electronic Relaxation 1
   ENCUT  =  450.0 eV  33.07 Ry    5.75 a.u.  13.84 13.84 13.84*2*pi/ulx,y,z
   ENINI  =  450.0     initial cutoff
   ENAUG  =  644.9 eV  augmentation charge cutoff
   NELM   =     60;   NELMIN=  2; NELMDL= -5     # of ELM steps 
   EDIFF  = 0.1E-03   stopping-criterion for ELM
   LREAL  =      F    real-space projection
   NLSPLINE    = F    spline interpolate recip. space projectors
   LCOMPAT=      F    compatible to vasp.4.4
   GGA_COMPAT  = T    GGA compatible to vasp.4.4-vasp.4.6
   LMAXPAW     = -100 max onsite density
   LMAXMIX     =    2 max onsite mixed and CHGCAR
   VOSKOWN=      0    Vosko Wilk Nusair interpolation
   ROPT   =    0.00000   0.00000
 Ionic relaxation
   EDIFFG = 0.1E-02   stopping-criterion for IOM
   NSW    =      0    number of steps for IOM
   NBLOCK =      1;   KBLOCK =      1    inner block; outer block 
   IBRION =     -1    ionic relax: 0-MD 1-quasi-New 2-CG
   NFREE  =      0    steps in history (QN), initial steepest desc. (CG)
   ISIF   =      2    stress and relaxation
   IWAVPR =     10    prediction:  0-non 1-charg 2-wave 3-comb
   ISYM   =      2    0-nonsym 1-usesym 2-fastsym
   LCORR  =      T    Harris-Foulkes like correction to forces

   POTIM  = 0.5000    time-step for ionic-motion
   TEIN   =    0.0    initial temperature
   TEBEG  =    0.0;   TEEND  =   0.0 temperature during run
   SMASS  =  -3.00    Nose mass-parameter (am)
   estimated Nose-frequenzy (Omega)   =  0.10E-29 period in steps =****** mass=  -0.146E-26a.u.
   SCALEE = 1.0000    scale energy and forces
   NPACO  =    256;   APACO  = 16.0  distance and # of slots for P.C.
   PSTRESS=    0.0 pullay stress

  Mass of Ions in am
   POMASS =  12.01 19.00
  Ionic Valenz
   ZVAL   =   4.00  7.00
  Atomic Wigner-Seitz radii
   RWIGS  =  -1.00 -1.00
  virtual crystal weights 
   VCA    =   1.00  1.00
   NELECT =      32.0000    total number of electrons
   NUPDOWN=      -1.0000    fix difference up-down

 DOS related values:
   EMIN   =  10.00;   EMAX   =-10.00  energy-range for DOS
   EFERMI =   0.00
   ISMEAR =     1;   SIGMA  =   0.20  broadening in eV -4-tet -1-fermi 0-gaus

 Electronic relaxation 2 (details)
   IALGO  =     38    algorithm
   LDIAG  =      T    sub-space diagonalisation (order eigenvalues)
   LSUBROT=      T    optimize rotation matrix (better conditioning)
   TURBO    =      0    0=normal 1=particle mesh
   IRESTART =      0    0=no restart 2=restart with 2 vectors
   NREBOOT  =      0    no. of reboots
   NMIN     =      0    reboot dimension
   EREF     =   0.00    reference energy to select bands
   IMIX   =      4    mixing-type and parameters
     AMIX     =   0.40;   BMIX     =  1.00
     AMIX_MAG =   1.60;   BMIX_MAG =  1.00
     AMIN     =   0.10
     WC   =   100.;   INIMIX=   1;  MIXPRE=   1

 Intra band minimization:
   WEIMIN = 0.0000     energy-eigenvalue tresh-hold
   EBREAK =  0.13E-05  absolut break condition
   DEPER  =   0.30     relativ break condition  

   TIME   =   0.40     timestep for ELM

  volume/ion in A,a.u.               =     102.40       691.03
  Fermi-wavevector in a.u.,A,eV,Ry     =   0.649683  1.227723  5.742856  0.422088
  Thomas-Fermi vector in A             =   1.718718
 
 Write flags
   LWAVE  =      T    write WAVECAR
   LCHARG =      T    write CHGCAR
   LVTOT  =      F    write LOCPOT, total local potential
   LVHAR  =      F    write LOCPOT, Hartree potential only
   LELF   =      F    write electronic localiz. function (ELF)
   LORBIT =      0    0 simple, 1 ext, 2 COOP (PROOUT)


 Dipole corrections
   LMONO  =      F    monopole corrections only (constant potential shift)
   LDIPOL =      F    correct potential (dipole corrections)
   IDIPOL =      0    1-x, 2-y, 3-z, 4-all directions 
   EPSILON=  1.0000000 bulk dielectric constant

 Exchange correlation treatment:
   GGA     =    --    GGA type
   LEXCH   =     8    internal setting for exchange type
   VOSKOWN=      0    Vosko Wilk Nusair interpolation
   LHFCALC =     F    Hartree Fock is set to
   LHFONE  =     F    Hartree Fock one center treatment
   AEXX    =    0.0000 exact exchange contribution

 Linear response parameters
   LEPSILON=     F    determine dielectric tensor
   LRPA    =     F    only Hartree local field effects (RPA)
   LNABLA  =     F    use nabla operator in PAW spheres
   LVEL    =     F    velocity operator in full k-point grid
   LINTERFAST=   F  fast interpolation
   KINTER  =     0    interpolate to denser k-point grid
   CSHIFT  =0.1000    complex shift for real part using Kramers Kronig
   OMEGAMAX=  -1.0    maximum frequency
   RTIME   =    0.100 relaxation time in fs

 Orbital magnetization related:
   ORBITALMAG=     F  switch on orbital magnetization
   LCHIMAG   =     F  perturbation theory with respect to B field
   DQ        =  0.001000  dq finite difference perturbation B field



--------------------------------------------------------------------------------------------------------


 Static calculation
 charge density and potential will be updated during run
 non-spin polarized calculation
 Variant of blocked Davidson
 Davidson routine will perform the subspace rotation
 perform sub-space diagonalisation
    after iterative eigenvector-optimisation
 modified Broyden-mixing scheme, WC =      100.0
 initial mixing is a Kerker type mixing with AMIX =  0.4000 and BMIX =      1.0000
 Hartree-type preconditioning will be used
 using additional bands            4
 reciprocal scheme for non local part
 calculate Harris-corrections to forces 
   (improved forces if not selfconsistent)
 use gradient corrections 
 use of overlap-Matrix (Vanderbilt PP)
 Methfessel and Paxton  Order N= 1 SIGMA  =   0.20


--------------------------------------------------------------------------------------------------------


  energy-cutoff  :      450.00
  volume of cell :      512.00
      direct lattice vectors                 reciprocal lattice vectors
     8.000000000  0.000000000  0.000000000     0.125000000  0.000000000  0.000000000
     0.000000000  8.000000000  0.000000000     0.000000000  0.125000000  0.000000000
     0.000000000  0.000000000  8.000000000     0.000000000  0.000000000  0.125000000

  length of vectors
     8.000000000  8.000000000  8.000000000     0.125000000  0.125000000  0.125000000


 
 k-points in units of 2pi/SCALE and weight: KPOINTS created by Atomic Simulation Env
   0.00000000  0.00000000  0.00000000       1.000
 
 k-points in reciprocal lattice and weights: KPOINTS created by Atomic Simulation Env
   0.00000000  0.00000000  0.00000000       1.000
 
 position of ions in fractional coordinates (direct lattice) 
   0.50000000  0.50000000  0.50000000
   0.59592950  0.59592950  0.59592950
   0.40407050  0.40407050  0.59592950
   0.40407050  0.59592950  0.40407050
   0.59592950  0.40407050  0.40407050
 
 position of ions in cartesian coordinates  (Angst):
   4.00000000  4.00000000  4.00000000
   4.76743600  4.76743600  4.76743600
   3.23256400  3.23256400  4.76743600
   3.23256400  4.76743600  3.23256400
   4.76743600  3.23256400  3.23256400
 


--------------------------------------------------------------------------------------------------------


 k-point  1 :  0.00000.00000.0000  plane waves:   11067

 maximum and minimum number of plane-waves per node :     11067    11067

 maximum number of plane-waves:     11067
 maximum index in each direction: 
   IXMAX=   13   IYMAX=   13   IZMAX=   13
   IXMIN=  -13   IYMIN=  -13   IZMIN=  -13

 WARNING: aliasing errors must be expected set NGX to  54 to avoid them
 WARNING: aliasing errors must be expected set NGY to  54 to avoid them
 WARNING: aliasing errors must be expected set NGZ to  54 to avoid them
 aliasing errors are usually negligible using standard VASP settings
 and one can safely disregard these warnings

 serial   3D FFT for wavefunctions
 parallel 3D FFT for charge:
    minimum data exchange during FFTs selected (reduces bandwidth)


 total amount of memory used by VASP on root node    93273. kBytes
========================================================================

   base      :      30000. kBytes
   nonl-proj :       2301. kBytes
   fftplans  :      20656. kBytes
   grid      :      36747. kBytes
   one-center:         15. kBytes
   wavefun   :       3554. kBytes
 
 Broyden mixing: mesh for mixing (old mesh)
   NGX = 27   NGY = 27   NGZ = 27
  (NGX  = 84   NGY  = 84   NGZ  = 84)
  gives a total of  19683 points

 initial charge density was supplied:
 charge density of overlapping atoms calculated
 number of electron      32.0000000 magnetization 
 keeping initial charge density in first step


--------------------------------------------------------------------------------------------------------


 Maximum index for augmentation-charges         1797 (set IRDMAX)


--------------------------------------------------------------------------------------------------------


 First call to EWALD:  gamma=   0.222
 Maximum number of real-space cells 3x 3x 3
 Maximum number of reciprocal cells 3x 3x 3

    FEWALD:  cpu time    0.00: real time    0.00


----------------------------------------- Iteration    1(   1)  ---------------------------------------


    POTLOK:  cpu time    0.96: real time    0.96
    SETDIJ:  cpu time    0.01: real time    0.01
     EDDAV:  cpu time    1.29: real time    1.29
       DOS:  cpu time    0.00: real time    0.00
    --------------------------------------------
      LOOP:  cpu time    2.26: real time    2.29

 eigenvalue-minimisations  :    56
 total energy-change (2. order) : 0.2951120E+03  (-0.1182340E+04)
 number of electron      32.0000000 magnetization 
 augmentation part       32.0000000 magnetization 

 Free energy of the ion-electron system (eV)
  ---------------------------------------------------
  alpha Z        PSCENC =         7.54128431
  Ewald energy   TEWEN  =       639.40154998
  -1/2 Hartree   DENC   =     -3017.86676480
  -exchange  EXHF       =         0.00000000
  -V(xc)+E(xc)   XCENC  =       162.93168310
  PAW double counting   =      1763.54531609    -1785.13761353
  entropy T*S    EENTRO =         0.01834851
  eigenvalues    EBANDS =      -260.18152692
  atomic energy  EATOM  =      2784.85974696
  ---------------------------------------------------
  free energy    TOTEN  =       295.11202371 eV

  energy without entropy =      295.09367519  energy(sigma->0) =      295.10590754


--------------------------------------------------------------------------------------------------------




----------------------------------------- Iteration    1(   2)  ---------------------------------------


     EDDAV:  cpu time    1.43: real time    1.43
       DOS:  cpu time    0.00: real time    0.00
    --------------------------------------------
      LOOP:  cpu time    1.43: real time    1.47

 eigenvalue-minimisations  :    64
 total energy-change (2. order) :-0.2663165E+03  (-0.2563515E+03)
 number of electron      32.0000000 magnetization 
 augmentation part       32.0000000 magnetization 

 Free energy of the ion-electron system (eV)
  ---------------------------------------------------
  alpha Z        PSCENC =         7.54128431
  Ewald energy   TEWEN  =       639.40154998
  -1/2 Hartree   DENC   =     -3017.86676480
  -exchange  EXHF       =         0.00000000
  -V(xc)+E(xc)   XCENC  =       162.93168310
  PAW double counting   =      1763.54531609    -1785.13761353
  entropy T*S    EENTRO =         0.01159581
  eigenvalues    EBANDS =      -526.49128942
  atomic energy  EATOM  =      2784.85974696
  ---------------------------------------------------
  free energy    TOTEN  =        28.79550851 eV

  energy without entropy =       28.78391270  energy(sigma->0) =       28.79164324


--------------------------------------------------------------------------------------------------------




----------------------------------------- Iteration    1(   3)  ---------------------------------------


     EDDAV:  cpu time    0.99: real time    0.99
       DOS:  cpu time    0.00: real time    0.00
    --------------------------------------------
      LOOP:  cpu time    0.99: real time    1.02

 eigenvalue-minimisations  :    40
 total energy-change (2. order) :-0.5533538E+02  (-0.5521625E+02)
 number of electron      32.0000000 magnetization 
 augmentation part       32.0000000 magnetization 

 Free energy of the ion-electron system (eV)
  ---------------------------------------------------
  alpha Z        PSCENC =         7.54128431
  Ewald energy   TEWEN  =       639.40154998
  -1/2 Hartree   DENC   =     -3017.86676480
  -exchange  EXHF       =         0.00000000
  -V(xc)+E(xc)   XCENC  =       162.93168310
  PAW double counting   =      1763.54531609    -1785.13761353
  entropy T*S    EENTRO =         0.04027659
  eigenvalues    EBANDS =      -581.85535009
  atomic energy  EATOM  =      2784.85974696
  ---------------------------------------------------
  free energy    TOTEN  =       -26.53987138 eV

  energy without entropy =      -26.58014797  energy(sigma->0) =      -26.55329691


--------------------------------------------------------------------------------------------------------




----------------------------------------- Iteration    1(   4)  ---------------------------------------


     EDDAV:  cpu time    1.14: real time    1.14
       DOS:  cpu time    0.00: real time    0.00
    --------------------------------------------
      LOOP:  cpu time    1.14: real time    1.20

 eigenvalue-minimisations  :    48
 total energy-change (2. order) :-0.9945845E+00  (-0.9883041E+00)
 number of electron      32.0000000 magnetization 
 augmentation part       32.0000000 magnetization 

 Free energy of the ion-electron system (eV)
  ---------------------------------------------------
  alpha Z        PSCENC =         7.54128431
  Ewald energy   TEWEN  =       639.40154998
  -1/2 Hartree   DENC   =     -3017.86676480
  -exchange  EXHF       =         0.00000000
  -V(xc)+E(xc)   XCENC  =       162.93168310
  PAW double counting   =      1763.54531609    -1785.13761353
  entropy T*S    EENTRO =         0.03478816
  eigenvalues    EBANDS =      -582.84444615
  atomic energy  EATOM  =      2784.85974696
  ---------------------------------------------------
  free energy    TOTEN  =       -27.53445588 eV

  energy without entropy =      -27.56924403  energy(sigma->0) =      -27.54605193


--------------------------------------------------------------------------------------------------------




----------------------------------------- Iteration    1(   5)  ---------------------------------------


     EDDAV:  cpu time    1.14: real time    1.14
       DOS:  cpu time    0.00: real time    0.00
    CHARGE:  cpu time    0.18: real time    0.18
    MIXING:  cpu time    0.03: real time    0.03
    --------------------------------------------
      LOOP:  cpu time    1.35: real time    1.38

 eigenvalue-minimisations  :    48
 total energy-change (2. order) :-0.1956671E-01  (-0.1955000E-01)
 number of electron      31.9999780 magnetization 
 augmentation part        5.4829729 magnetization 

 Broyden mixing:
  rms(total) = 0.89936E+00    rms(broyden)= 0.89588E+00
  rms(prec ) = 0.12175E+01
  weight for this iteration     100.00

 Free energy of the ion-electron system (eV)
  ---------------------------------------------------
  alpha Z        PSCENC =         7.54128431
  Ewald energy   TEWEN  =       639.40154998
  -1/2 Hartree   DENC   =     -3017.86676480
  -exchange  EXHF       =         0.00000000
  -V(xc)+E(xc)   XCENC  =       162.93168310
  PAW double counting   =      1763.54531609    -1785.13761353
  entropy T*S    EENTRO =         0.03478743
  eigenvalues    EBANDS =      -582.86401214
  atomic energy  EATOM  =      2784.85974696
  ---------------------------------------------------
  free energy    TOTEN  =       -27.55402259 eV

  energy without entropy =      -27.58881002  energy(sigma->0) =      -27.56561840


--------------------------------------------------------------------------------------------------------




----------------------------------------- Iteration    1(   6)  ---------------------------------------


    POTLOK:  cpu time    0.98: real time    0.99
    SETDIJ:  cpu time    0.01: real time    0.01
     EDDAV:  cpu time    1.27: real time    1.27
       DOS:  cpu time    0.00: real time    0.00
    CHARGE:  cpu time    0.20: real time    0.20
    MIXING:  cpu time    0.03: real time    0.03
    --------------------------------------------
      LOOP:  cpu time    2.51: real time    2.62

 eigenvalue-minimisations  :    48
 total energy-change (2. order) : 0.1711250E+01  (-0.8406130E+00)
 number of electron      31.9999794 magnetization 
 augmentation part        5.1791350 magnetization 

 Broyden mixing:
  rms(total) = 0.37326E+00    rms(broyden)= 0.37222E+00
  rms(prec ) = 0.41956E+00
  weight for this iteration     100.00

 eigenvalues of (default mixing * dielectric matrix)
  average eigenvalue GAMMA=   1.0565
  1.0565

 Free energy of the ion-electron system (eV)
  ---------------------------------------------------
  alpha Z        PSCENC =         7.54128431
  Ewald energy   TEWEN  =       639.40154998
  -1/2 Hartree   DENC   =     -3044.98886621
  -exchange  EXHF       =         0.00000000
  -V(xc)+E(xc)   XCENC  =       165.07963938
  PAW double counting   =      1895.09321627    -1917.94120214
  entropy T*S    EENTRO =         0.03478743
  eigenvalues    EBANDS =      -554.92292906
  atomic energy  EATOM  =      2784.85974696
  ---------------------------------------------------
  free energy    TOTEN  =       -25.84277308 eV

  energy without entropy =      -25.87756051  energy(sigma->0) =      -25.85436889


--------------------------------------------------------------------------------------------------------




----------------------------------------- Iteration    1(   7)  ---------------------------------------


    POTLOK:  cpu time    0.90: real time    0.90
    SETDIJ:  cpu time    0.01: real time    0.01
     EDDAV:  cpu time    1.00: real time    1.00
       DOS:  cpu time    0.00: real time    0.00
    CHARGE:  cpu time    0.17: real time    0.17
    MIXING:  cpu time    0.03: real time    0.03
    --------------------------------------------
      LOOP:  cpu time    2.12: real time    2.18

 eigenvalue-minimisations  :    40
 total energy-change (2. order) : 0.1952815E-01  (-0.3435427E-01)
 number of electron      31.9999795 magnetization 
 augmentation part        5.1788976 magnetization 

 Broyden mixing:
  rms(total) = 0.20718E+00    rms(broyden)= 0.20715E+00
  rms(prec ) = 0.23363E+00
  weight for this iteration     100.00

 eigenvalues of (default mixing * dielectric matrix)
  average eigenvalue GAMMA=   1.6315
  1.0569  2.2062

 Free energy of the ion-electron system (eV)
  ---------------------------------------------------
  alpha Z        PSCENC =         7.54128431
  Ewald energy   TEWEN  =       639.40154998
  -1/2 Hartree   DENC   =     -3046.28762706
  -exchange  EXHF       =         0.00000000
  -V(xc)+E(xc)   XCENC  =       165.24208250
  PAW double counting   =      1940.57961239    -1963.00741621
  entropy T*S    EENTRO =         0.03478743
  eigenvalues    EBANDS =      -554.18726523
  atomic energy  EATOM  =      2784.85974696
  ---------------------------------------------------
  free energy    TOTEN  =       -25.82324493 eV

  energy without entropy =      -25.85803236  energy(sigma->0) =      -25.83484074


--------------------------------------------------------------------------------------------------------




----------------------------------------- Iteration    1(   8)  ---------------------------------------


    POTLOK:  cpu time    0.92: real time    0.92
    SETDIJ:  cpu time    0.01: real time    0.01
     EDDAV:  cpu time    1.29: real time    1.29
       DOS:  cpu time    0.00: real time    0.00
    CHARGE:  cpu time    0.17: real time    0.17
    MIXING:  cpu time    0.03: real time    0.03
    --------------------------------------------
      LOOP:  cpu time    2.43: real time    2.45

 eigenvalue-minimisations  :    56
 total energy-change (2. order) :-0.1709696E-01  (-0.4599663E-02)
 number of electron      31.9999795 magnetization 
 augmentation part        5.1864126 magnetization 

 Broyden mixing:
  rms(total) = 0.25297E-01    rms(broyden)= 0.25286E-01
  rms(prec ) = 0.33607E-01
  weight for this iteration     100.00

 eigenvalues of (default mixing * dielectric matrix)
  average eigenvalue GAMMA=   1.5265
  2.4337  1.0729  1.0729

 Free energy of the ion-electron system (eV)
  ---------------------------------------------------
  alpha Z        PSCENC =         7.54128431
  Ewald energy   TEWEN  =       639.40154998
  -1/2 Hartree   DENC   =     -3047.41092060
  -exchange  EXHF       =         0.00000000
  -V(xc)+E(xc)   XCENC  =       165.37054246
  PAW double counting   =      1994.35305881    -2016.37905913
  entropy T*S    EENTRO =         0.03478743
  eigenvalues    EBANDS =      -553.61133211
  atomic energy  EATOM  =      2784.85974696
  ---------------------------------------------------
  free energy    TOTEN  =       -25.84034189 eV

  energy without entropy =      -25.87512932  energy(sigma->0) =      -25.85193770


--------------------------------------------------------------------------------------------------------




----------------------------------------- Iteration    1(   9)  ---------------------------------------


    POTLOK:  cpu time    0.92: real time    0.93
    SETDIJ:  cpu time    0.01: real time    0.01
     EDDAV:  cpu time    0.99: real time    0.99
       DOS:  cpu time    0.00: real time    0.00
    CHARGE:  cpu time    0.17: real time    0.18
    MIXING:  cpu time    0.03: real time    0.03
    --------------------------------------------
      LOOP:  cpu time    2.14: real time    2.19

 eigenvalue-minimisations  :    40
 total energy-change (2. order) :-0.1196883E-02  (-0.8078962E-03)
 number of electron      31.9999795 magnetization 
 augmentation part        5.1798901 magnetization 

 Broyden mixing:
  rms(total) = 0.10999E-01    rms(broyden)= 0.10986E-01
  rms(prec ) = 0.13448E-01
  weight for this iteration     100.00

 eigenvalues of (default mixing * dielectric matrix)
  average eigenvalue GAMMA=   1.6848
  0.9880  0.9880  2.3816  2.3816

 Free energy of the ion-electron system (eV)
  ---------------------------------------------------
  alpha Z        PSCENC =         7.54128431
  Ewald energy   TEWEN  =       639.40154998
  -1/2 Hartree   DENC   =     -3048.31357353
  -exchange  EXHF       =         0.00000000
  -V(xc)+E(xc)   XCENC  =       165.44069448
  PAW double counting   =      2001.51411398    -2023.52500734
  entropy T*S    EENTRO =         0.03478743
  eigenvalues    EBANDS =      -552.79513505
  atomic energy  EATOM  =      2784.85974696
  ---------------------------------------------------
  free energy    TOTEN  =       -25.84153877 eV

  energy without entropy =      -25.87632620  energy(sigma->0) =      -25.85313458


--------------------------------------------------------------------------------------------------------




----------------------------------------- Iteration    1(  10)  ---------------------------------------


    POTLOK:  cpu time    0.92: real time    0.93
    SETDIJ:  cpu time    0.01: real time    0.01
     EDDAV:  cpu time    1.14: real time    1.14
       DOS:  cpu time    0.00: real time    0.00
    CHARGE:  cpu time    0.17: real time    0.17
    MIXING:  cpu time    0.03: real time    0.03
    --------------------------------------------
      LOOP:  cpu time    2.29: real time    2.41

 eigenvalue-minimisations  :    48
 total energy-change (2. order) :-0.2886564E-03  (-0.4932082E-04)
 number of electron      31.9999795 magnetization 
 augmentation part        5.1815598 magnetization 

 Broyden mixing:
  rms(total) = 0.21518E-02    rms(broyden)= 0.21459E-02
  rms(prec ) = 0.29688E-02
  weight for this iteration     100.00

 eigenvalues of (default mixing * dielectric matrix)
  average eigenvalue GAMMA=   1.5701
  2.5871  2.1388  1.0036  1.0036  1.1176

 Free energy of the ion-electron system (eV)
  ---------------------------------------------------
  alpha Z        PSCENC =         7.54128431
  Ewald energy   TEWEN  =       639.40154998
  -1/2 Hartree   DENC   =     -3048.18157803
  -exchange  EXHF       =         0.00000000
  -V(xc)+E(xc)   XCENC  =       165.43094748
  PAW double counting   =      2000.90616176    -2022.90096105
  entropy T*S    EENTRO =         0.03478743
  eigenvalues    EBANDS =      -552.93376627
  atomic energy  EATOM  =      2784.85974696
  ---------------------------------------------------
  free energy    TOTEN  =       -25.84182743 eV

  energy without entropy =      -25.87661486  energy(sigma->0) =      -25.85342324


--------------------------------------------------------------------------------------------------------




----------------------------------------- Iteration    1(  11)  ---------------------------------------


    POTLOK:  cpu time    0.93: real time    0.93
    SETDIJ:  cpu time    0.01: real time    0.01
     EDDAV:  cpu time    0.72: real time    0.72
       DOS:  cpu time    0.00: real time    0.00
    --------------------------------------------
      LOOP:  cpu time    1.66: real time    1.73

 eigenvalue-minimisations  :    24
 total energy-change (2. order) :-0.9134969E-04  (-0.5630867E-05)
 number of electron      31.9999795 magnetization 
 augmentation part        5.1815598 magnetization 

 Free energy of the ion-electron system (eV)
  ---------------------------------------------------
  alpha Z        PSCENC =         7.54128431
  Ewald energy   TEWEN  =       639.40154998
  -1/2 Hartree   DENC   =     -3048.19050480
  -exchange  EXHF       =         0.00000000
  -V(xc)+E(xc)   XCENC  =       165.43304162
  PAW double counting   =      2001.42018578    -2023.41654889
  entropy T*S    EENTRO =         0.03478743
  eigenvalues    EBANDS =      -552.92546118
  atomic energy  EATOM  =      2784.85974696
  ---------------------------------------------------
  free energy    TOTEN  =       -25.84191878 eV

  energy without entropy =      -25.87670621  energy(sigma->0) =      -25.85351459


--------------------------------------------------------------------------------------------------------




 average (electrostatic) potential at core
  the test charge radii are     0.6991  0.7167
  (the norm of the test charge is              1.0000)
       1 -66.2169       2 -86.8977       3 -86.8977       4 -86.8977       5 -86.8977
 
 
 
 E-fermi :  -9.5757     XC(G=0):  -1.8389     alpha+bet : -0.7008


 k-point   1 :       0.0000    0.0000    0.0000
  band No.  band energies     occupation 
      1     -34.2203      2.00000
      2     -31.2038      2.00000
      3     -31.2038      2.00000
      4     -31.2038      2.00000
      5     -17.5638      2.00000
      6     -15.2371      2.00000
      7     -15.2371      2.00000
      8     -15.2371      2.00000
      9     -11.5411      2.00000
     10     -11.5411      2.00000
     11     -11.0138      2.00000
     12     -11.0138      2.00000
     13     -11.0138      2.00000
     14      -9.7440      2.00000
     15      -9.7440      2.00000
     16      -9.7440      2.00000
     17      -0.3098      0.00000
     18       1.9923      0.00000
     19       1.9924      0.00000
     20       1.9924      0.00000


--------------------------------------------------------------------------------------------------------


 soft charge-density along one line, spin component           1
         0         1         2         3         4         5         6         7         8         9
 total charge-density along one line
 
 pseudopotential strength for first ion, spin component:           1
 10.675   0.034   0.000   0.000   0.000   0.000   0.000   0.000
  0.034  -0.001   0.000   0.000   0.000   0.000   0.000   0.000
  0.000   0.000  -4.789   0.000   0.000  -0.006   0.000   0.000
  0.000   0.000   0.000  -4.789   0.000   0.000  -0.006   0.000
  0.000   0.000   0.000   0.000  -4.789   0.000   0.000  -0.006
  0.000   0.000  -0.006   0.000   0.000  -0.783   0.000   0.000
  0.000   0.000   0.000  -0.006   0.000   0.000  -0.783   0.000
  0.000   0.000   0.000   0.000  -0.006   0.000   0.000  -0.783
 total augmentation occupancy for first ion, spin component:           1
  1.356  -0.892   0.000   0.000   0.000   0.000   0.000   0.000
 -0.892   1.524   0.000   0.000   0.000   0.000   0.000   0.000
  0.000   0.000   0.966   0.000   0.000   0.185   0.000   0.000
  0.000   0.000   0.000   0.966   0.000   0.000   0.185   0.000
  0.000   0.000   0.000   0.000   0.966   0.000   0.000   0.185
  0.000   0.000   0.185   0.000   0.000   0.055   0.000   0.000
  0.000   0.000   0.000   0.185   0.000   0.000   0.055   0.000
  0.000   0.000   0.000   0.000   0.185   0.000   0.000   0.055


------------------------ aborting loop because EDIFF is reached ----------------------------------------


    CHARGE:  cpu time    0.17: real time    0.18
    FORLOC:  cpu time    0.10: real time    0.10
    FORNL :  cpu time    0.21: real time    0.21
    STRESS:  cpu time    0.48: real time    0.48
    FORHAR:  cpu time    0.31: real time    0.31
    MIXING:  cpu time    0.03: real time    0.03

  FORCE on cell =-STRESS in cart. coord.  units (eV):
  Direction    XX          YY          ZZ          XY          YZ          ZX
  --------------------------------------------------------------------------------------
  Alpha Z     7.54128     7.54128     7.54128
  Ewald     213.13355   213.13355   213.13355     0.00000     0.00000     0.00000
  Hartree  1016.06667  1016.06667  1016.06667     0.00000     0.00000     0.00000
  E(xc)    -174.77547  -174.77547  -174.77547     0.00000     0.00000     0.00000
  Local   -1681.74996 -1681.74996 -1681.74996     0.00000     0.00000     0.00000
  n-local  -162.21057  -162.21057  -162.21056     0.00000    -0.00001     0.00000
  augment    71.16410    71.16411    71.16410    -0.00001     0.00000    -0.00001
  Kinetic   711.04092   711.04088   711.04090     0.00000    -0.00001     0.00000
  Fock        0.00000     0.00000     0.00000     0.00000     0.00000     0.00000
  -------------------------------------------------------------------------------------
  Total       0.21050     0.21050     0.21050     0.00000     0.00000     0.00000
  in kB       0.65870     0.65870     0.65870     0.00000     0.00000     0.00000
  external pressure =        0.66 kB  Pullay stress =        0.00 kB


 VOLUME and BASIS-vectors are now :
 -----------------------------------------------------------------------------
  energy-cutoff  :      450.00
  volume of cell :      512.00
      direct lattice vectors                 reciprocal lattice vectors
     8.000000000  0.000000000  0.000000000     0.125000000  0.000000000  0.000000000
     0.000000000  8.000000000  0.000000000     0.000000000  0.125000000  0.000000000
     0.000000000  0.000000000  8.000000000     0.000000000  0.000000000  0.125000000

  length of vectors
     8.000000000  8.000000000  8.000000000     0.125000000  0.125000000  0.125000000


 FORCES acting on ions
    electron-ion (+dipol)            ewald-force                    non-local-force                 convergence-correction
 -----------------------------------------------------------------------------------------------
   -.229E-13 -.560E-12 -.145E-11   -.164E-12 -.632E-13 -.349E-13   0.106E-21 0.000E+00 -.106E-21   0.228E-13 0.128E-14 0.225E-13
   -.290E+03 -.290E+03 -.290E+03   0.324E+03 0.324E+03 0.324E+03   -.341E+02 -.341E+02 -.341E+02   -.745E-02 -.745E-02 -.745E-02
   0.290E+03 0.290E+03 -.290E+03   -.324E+03 -.324E+03 0.324E+03   0.341E+02 0.341E+02 -.341E+02   0.745E-02 0.745E-02 -.745E-02
   0.290E+03 -.290E+03 0.290E+03   -.324E+03 0.324E+03 -.324E+03   0.341E+02 -.341E+02 0.341E+02   0.745E-02 -.745E-02 0.745E-02
   -.290E+03 0.290E+03 0.290E+03   0.324E+03 -.324E+03 -.324E+03   -.341E+02 0.341E+02 0.341E+02   -.745E-02 0.745E-02 0.745E-02
 -----------------------------------------------------------------------------------------------
   -.979E-06 -.979E-06 -.306E-08   0.568E-13 0.000E+00 0.000E+00   -.711E-14 0.711E-14 -.213E-13   0.422E-12 0.322E-12 -.594E-13
 
 
 POSITION                                       TOTAL-FORCE (eV/Angst)
 -----------------------------------------------------------------------------------
      4.00000      4.00000      4.00000         0.000000      0.000000      0.000000
      4.76744      4.76744      4.76744         0.479932      0.479932      0.479932
      3.23256      3.23256      4.76744        -0.479932     -0.479932      0.479932
      3.23256      4.76744      3.23256        -0.479932      0.479932     -0.479932
      4.76744      3.23256      3.23256         0.479932     -0.479932     -0.479932
 -----------------------------------------------------------------------------------
    total drift:                               -0.000001     -0.000001      0.000000


--------------------------------------------------------------------------------------------------------



  FREE ENERGIE OF THE ION-ELECTRON SYSTEM (eV)
  ---------------------------------------------------
  free  energy   TOTEN  =       -25.841919 eV

  energy  without entropy=      -25.876706  energy(sigma->0) =      -25.853515
 


--------------------------------------------------------------------------------------------------------


    POTLOK:  cpu time    0.94: real time    0.94


--------------------------------------------------------------------------------------------------------


 writing wavefunctions
     LOOP+:  cpu time   23.73: real time   26.46
    4ORBIT:  cpu time    0.00: real time    0.00

 total amount of memory used by VASP on root node    93273. kBytes
========================================================================

   base      :      30000. kBytes
   nonl-proj :       2301. kBytes
   fftplans  :      20656. kBytes
   grid      :      36747. kBytes
   one-center:         15. kBytes
   wavefun   :       3554. kBytes
 
  
  
 General timing and accounting informations for this job:
 ========================================================
  
                  Total CPU time used (sec):       25.756
                            User time (sec):       25.416
                          System time (sec):        0.340
                         Elapsed time (sec):       28.994
  
                   Maximum memory used (kb):           0.
                   Average memory used (kb):           0.
  
                          Minor page faults:        76265
                          Major page faults:            0
                 Voluntary context switches:         1118
