unknown system                          
           1
     8.000000    0.000000    0.000000
     0.000000    8.000000    0.000000
     0.000000    0.000000    8.000000
   C    F 
   1   4
Direct configuration=     1
   0.50000000  0.50000000  0.50000000
   0.59592950  0.59592950  0.59592950
   0.40407050  0.40407050  0.59592950
   0.40407050  0.59592950  0.40407050
   0.59592950  0.40407050  0.40407050
