   5   5   0   0
  0.1024000E+03  0.8000000E-09  0.8000000E-09  0.8000000E-09  0.5000000E-15
  1.000000000000000E-004
  CAR 
 unknown system                          
      3.70148510    -18.76296089  301     -8.12964354      1.00000000
    -18.763  0.0000E+00  0.0000E+00
    -18.688  0.0000E+00  0.0000E+00
    -18.613  0.0000E+00  0.0000E+00
    -18.538  0.0000E+00  0.0000E+00
    -18.463  0.0000E+00  0.0000E+00
    -18.389  0.0000E+00  0.0000E+00
    -18.314  0.0000E+00  0.0000E+00
    -18.239  0.0000E+00  0.0000E+00
    -18.164  0.0000E+00  0.0000E+00
    -18.089  0.0000E+00  0.0000E+00
    -18.014  0.0000E+00  0.0000E+00
    -17.939  0.1483E-15  0.1110E-16
    -17.864  0.8896E-14  0.6772E-15
    -17.790  0.5127E-12  0.3907E-13
    -17.715  0.2225E-10  0.1705E-11
    -17.640  0.7324E-09  0.5655E-10
    -17.565  0.1829E-07  0.1426E-08
    -17.490  0.3464E-06  0.2736E-07
    -17.415  0.4979E-05  0.4002E-06
    -17.340  0.5434E-04  0.4469E-05
    -17.265  0.4503E-03  0.3819E-04
    -17.190  0.2835E-02  0.2504E-03
    -17.116  0.1356E-01  0.1266E-02
    -17.041  0.4927E-01  0.4955E-02
    -16.966  0.1361E+00  0.1515E-01
    -16.891  0.2859E+00  0.3656E-01
    -16.816  0.4565E+00  0.7074E-01
    -16.741  0.5543E+00  0.1123E+00
    -16.666  0.5119E+00  0.1506E+00
    -16.591  0.3594E+00  0.1775E+00
    -16.517  0.1919E+00  0.1919E+00
    -16.442  0.7788E-01  0.1977E+00
    -16.367  0.2403E-01  0.1995E+00
    -16.292  0.5635E-02  0.1999E+00
    -16.217  0.1004E-02  0.2000E+00
    -16.142  0.1359E-03  0.2000E+00
    -16.067  0.1397E-04  0.2000E+00
    -15.992  0.1091E-05  0.2000E+00
    -15.917  0.6461E-07  0.2000E+00
    -15.843  0.2905E-08  0.2000E+00
    -15.768  0.9905E-10  0.2000E+00
    -15.693  0.2562E-11  0.2000E+00
    -15.618  0.5041E-13  0.2000E+00
    -15.543  0.5931E-15  0.2000E+00
    -15.468  0.0000E+00  0.2000E+00
    -15.393  0.0000E+00  0.2000E+00
    -15.318  0.0000E+00  0.2000E+00
    -15.244  0.0000E+00  0.2000E+00
    -15.169  0.0000E+00  0.2000E+00
    -15.094  0.0000E+00  0.2000E+00
    -15.019  0.0000E+00  0.2000E+00
    -14.944  0.0000E+00  0.2000E+00
    -14.869  0.0000E+00  0.2000E+00
    -14.794  0.0000E+00  0.2000E+00
    -14.719  0.0000E+00  0.2000E+00
    -14.644  0.0000E+00  0.2000E+00
    -14.570  0.0000E+00  0.2000E+00
    -14.495  0.0000E+00  0.2000E+00
    -14.420  0.0000E+00  0.2000E+00
    -14.345  0.0000E+00  0.2000E+00
    -14.270  0.0000E+00  0.2000E+00
    -14.195  0.0000E+00  0.2000E+00
    -14.120  0.0000E+00  0.2000E+00
    -14.045  0.0000E+00  0.2000E+00
    -13.971  0.0000E+00  0.2000E+00
    -13.896  0.0000E+00  0.2000E+00
    -13.821  0.0000E+00  0.2000E+00
    -13.746  0.0000E+00  0.2000E+00
    -13.671  0.0000E+00  0.2000E+00
    -13.596  0.0000E+00  0.2000E+00
    -13.521  0.0000E+00  0.2000E+00
    -13.446  0.0000E+00  0.2000E+00
    -13.371  0.0000E+00  0.2000E+00
    -13.297  0.0000E+00  0.2000E+00
    -13.222  0.0000E+00  0.2000E+00
    -13.147  0.0000E+00  0.2000E+00
    -13.072  0.0000E+00  0.2000E+00
    -12.997  0.0000E+00  0.2000E+00
    -12.922  0.0000E+00  0.2000E+00
    -12.847  0.0000E+00  0.2000E+00
    -12.772  0.0000E+00  0.2000E+00
    -12.698  0.0000E+00  0.2000E+00
    -12.623  0.0000E+00  0.2000E+00
    -12.548  0.0000E+00  0.2000E+00
    -12.473  0.0000E+00  0.2000E+00
    -12.398  0.0000E+00  0.2000E+00
    -12.323  0.0000E+00  0.2000E+00
    -12.248  0.0000E+00  0.2000E+00
    -12.173  0.0000E+00  0.2000E+00
    -12.099  0.0000E+00  0.2000E+00
    -12.024  0.0000E+00  0.2000E+00
    -11.949  0.0000E+00  0.2000E+00
    -11.874  0.0000E+00  0.2000E+00
    -11.799  0.0000E+00  0.2000E+00
    -11.724  0.0000E+00  0.2000E+00
    -11.649  0.0000E+00  0.2000E+00
    -11.574  0.0000E+00  0.2000E+00
    -11.499  0.0000E+00  0.2000E+00
    -11.425  0.0000E+00  0.2000E+00
    -11.350  0.0000E+00  0.2000E+00
    -11.275  0.0000E+00  0.2000E+00
    -11.200  0.0000E+00  0.2000E+00
    -11.125  0.0000E+00  0.2000E+00
    -11.050  0.0000E+00  0.2000E+00
    -10.975  0.0000E+00  0.2000E+00
    -10.900  0.0000E+00  0.2000E+00
    -10.826  0.0000E+00  0.2000E+00
    -10.751  0.0000E+00  0.2000E+00
    -10.676  0.0000E+00  0.2000E+00
    -10.601  0.0000E+00  0.2000E+00
    -10.526  0.0000E+00  0.2000E+00
    -10.451  0.0000E+00  0.2000E+00
    -10.376  0.0000E+00  0.2000E+00
    -10.301  0.4448E-15  0.2000E+00
    -10.226  0.2446E-13  0.2000E+00
    -10.152  0.1412E-11  0.2000E+00
    -10.077  0.6165E-10  0.2000E+00
    -10.002  0.2041E-08  0.2000E+00
     -9.927  0.5128E-07  0.2000E+00
     -9.852  0.9771E-06  0.2000E+00
     -9.777  0.1413E-04  0.2000E+00
     -9.702  0.1552E-03  0.2000E+00
     -9.627  0.1294E-02  0.2001E+00
     -9.553  0.8192E-02  0.2007E+00
     -9.478  0.3942E-01  0.2037E+00
     -9.403  0.1441E+00  0.2145E+00
     -9.328  0.4005E+00  0.2445E+00
     -9.253  0.8463E+00  0.3078E+00
     -9.178  0.1360E+01  0.4096E+00
     -9.103  0.1661E+01  0.5340E+00
     -9.028  0.1543E+01  0.6495E+00
     -8.953  0.1090E+01  0.7311E+00
     -8.879  0.5853E+00  0.7750E+00
     -8.804  0.2390E+00  0.7929E+00
     -8.729  0.7419E-01  0.7984E+00
     -8.654  0.1750E-01  0.7997E+00
     -8.579  0.3138E-02  0.8000E+00
     -8.504  0.4273E-03  0.8000E+00
     -8.429  0.4419E-04  0.8000E+00
     -8.354  0.3470E-05  0.8000E+00
     -8.280  0.2068E-06  0.8000E+00
     -8.205  0.9354E-08  0.8000E+00
     -8.130  0.3209E-09  0.8000E+00
     -8.055  0.8351E-11  0.8000E+00
     -7.980  0.1646E-12  0.8000E+00
     -7.905  0.2669E-14  0.8000E+00
     -7.830  0.0000E+00  0.8000E+00
     -7.755  0.0000E+00  0.8000E+00
     -7.681  0.0000E+00  0.8000E+00
     -7.606  0.0000E+00  0.8000E+00
     -7.531  0.0000E+00  0.8000E+00
     -7.456  0.0000E+00  0.8000E+00
     -7.381  0.0000E+00  0.8000E+00
     -7.306  0.0000E+00  0.8000E+00
     -7.231  0.0000E+00  0.8000E+00
     -7.156  0.0000E+00  0.8000E+00
     -7.081  0.0000E+00  0.8000E+00
     -7.007  0.0000E+00  0.8000E+00
     -6.932  0.0000E+00  0.8000E+00
     -6.857  0.0000E+00  0.8000E+00
     -6.782  0.0000E+00  0.8000E+00
     -6.707  0.0000E+00  0.8000E+00
     -6.632  0.0000E+00  0.8000E+00
     -6.557  0.0000E+00  0.8000E+00
     -6.482  0.0000E+00  0.8000E+00
     -6.408  0.0000E+00  0.8000E+00
     -6.333  0.0000E+00  0.8000E+00
     -6.258  0.0000E+00  0.8000E+00
     -6.183  0.0000E+00  0.8000E+00
     -6.108  0.0000E+00  0.8000E+00
     -6.033  0.0000E+00  0.8000E+00
     -5.958  0.0000E+00  0.8000E+00
     -5.883  0.0000E+00  0.8000E+00
     -5.808  0.0000E+00  0.8000E+00
     -5.734  0.0000E+00  0.8000E+00
     -5.659  0.0000E+00  0.8000E+00
     -5.584  0.0000E+00  0.8000E+00
     -5.509  0.0000E+00  0.8000E+00
     -5.434  0.0000E+00  0.8000E+00
     -5.359  0.0000E+00  0.8000E+00
     -5.284  0.0000E+00  0.8000E+00
     -5.209  0.0000E+00  0.8000E+00
     -5.135  0.0000E+00  0.8000E+00
     -5.060  0.0000E+00  0.8000E+00
     -4.985  0.0000E+00  0.8000E+00
     -4.910  0.0000E+00  0.8000E+00
     -4.835  0.0000E+00  0.8000E+00
     -4.760  0.0000E+00  0.8000E+00
     -4.685  0.0000E+00  0.8000E+00
     -4.610  0.0000E+00  0.8000E+00
     -4.535  0.0000E+00  0.8000E+00
     -4.461  0.0000E+00  0.8000E+00
     -4.386  0.0000E+00  0.8000E+00
     -4.311  0.0000E+00  0.8000E+00
     -4.236  0.0000E+00  0.8000E+00
     -4.161  0.0000E+00  0.8000E+00
     -4.086  0.0000E+00  0.8000E+00
     -4.011  0.0000E+00  0.8000E+00
     -3.936  0.0000E+00  0.8000E+00
     -3.862  0.0000E+00  0.8000E+00
     -3.787  0.0000E+00  0.8000E+00
     -3.712  0.0000E+00  0.8000E+00
     -3.637  0.0000E+00  0.8000E+00
     -3.562  0.0000E+00  0.8000E+00
     -3.487  0.0000E+00  0.8000E+00
     -3.412  0.0000E+00  0.8000E+00
     -3.337  0.0000E+00  0.8000E+00
     -3.262  0.0000E+00  0.8000E+00
     -3.188  0.0000E+00  0.8000E+00
     -3.113  0.0000E+00  0.8000E+00
     -3.038  0.0000E+00  0.8000E+00
     -2.963  0.0000E+00  0.8000E+00
     -2.888  0.0000E+00  0.8000E+00
     -2.813  0.0000E+00  0.8000E+00
     -2.738  0.0000E+00  0.8000E+00
     -2.663  0.0000E+00  0.8000E+00
     -2.589  0.0000E+00  0.8000E+00
     -2.514  0.0000E+00  0.8000E+00
     -2.439  0.0000E+00  0.8000E+00
     -2.364  0.0000E+00  0.8000E+00
     -2.289  0.0000E+00  0.8000E+00
     -2.214  0.0000E+00  0.8000E+00
     -2.139  0.0000E+00  0.8000E+00
     -2.064  0.0000E+00  0.8000E+00
     -1.990  0.0000E+00  0.8000E+00
     -1.915  0.0000E+00  0.8000E+00
     -1.840  0.1483E-15  0.8000E+00
     -1.765  0.1053E-13  0.8000E+00
     -1.690  0.5979E-12  0.8000E+00
     -1.615  0.2567E-10  0.8000E+00
     -1.540  0.8358E-09  0.8000E+00
     -1.465  0.2064E-07  0.8000E+00
     -1.390  0.3867E-06  0.8000E+00
     -1.316  0.5499E-05  0.8000E+00
     -1.241  0.5937E-04  0.8000E+00
     -1.166  0.4867E-03  0.8000E+00
     -1.091  0.3031E-02  0.8003E+00
     -1.016  0.1434E-01  0.8013E+00
     -0.941  0.5155E-01  0.8052E+00
     -0.866  0.1409E+00  0.8158E+00
     -0.791  0.2927E+00  0.8377E+00
     -0.717  0.4624E+00  0.8723E+00
     -0.642  0.5555E+00  0.9139E+00
     -0.567  0.5074E+00  0.9519E+00
     -0.492  0.3524E+00  0.9783E+00
     -0.417  0.1861E+00  0.9922E+00
     -0.342  0.7474E-01  0.9978E+00
     -0.267  0.2281E-01  0.9995E+00
     -0.192  0.5292E-02  0.9999E+00
     -0.117  0.9329E-03  0.1000E+01
     -0.043  0.1249E-03  0.1000E+01
      0.032  0.1270E-04  0.1000E+01
      0.107  0.9808E-06  0.1000E+01
      0.182  0.5748E-07  0.1000E+01
      0.257  0.2556E-08  0.1000E+01
      0.332  0.8622E-10  0.1000E+01
      0.407  0.2206E-11  0.1000E+01
      0.482  0.4270E-13  0.1000E+01
      0.556  0.2817E-14  0.1000E+01
      0.631  0.1508E-12  0.1000E+01
      0.706  0.7686E-11  0.1000E+01
      0.781  0.2972E-09  0.1000E+01
      0.856  0.8714E-08  0.1000E+01
      0.931  0.1938E-06  0.1000E+01
      1.006  0.3272E-05  0.1000E+01
      1.081  0.4192E-04  0.1000E+01
      1.156  0.4078E-03  0.1000E+01
      1.230  0.3013E-02  0.1000E+01
      1.305  0.1691E-01  0.1002E+01
      1.380  0.7209E-01  0.1007E+01
      1.455  0.2337E+00  0.1024E+01
      1.530  0.5756E+00  0.1068E+01
      1.605  0.1078E+01  0.1148E+01
      1.680  0.1536E+01  0.1263E+01
      1.755  0.1663E+01  0.1388E+01
      1.829  0.1370E+01  0.1490E+01
      1.904  0.8576E+00  0.1555E+01
      1.979  0.4083E+00  0.1585E+01
      2.054  0.1478E+00  0.1596E+01
      2.129  0.4067E-01  0.1599E+01
      2.204  0.8503E-02  0.1600E+01
      2.279  0.1351E-02  0.1600E+01
      2.354  0.1630E-03  0.1600E+01
      2.428  0.1494E-04  0.1600E+01
      2.503  0.1039E-05  0.1600E+01
      2.578  0.5485E-07  0.1600E+01
      2.653  0.2197E-08  0.1600E+01
      2.728  0.6675E-10  0.1600E+01
      2.803  0.1539E-11  0.1600E+01
      2.878  0.2669E-13  0.1600E+01
      2.953  0.0000E+00  0.1600E+01
      3.028  0.0000E+00  0.1600E+01
      3.102  0.0000E+00  0.1600E+01
      3.177  0.0000E+00  0.1600E+01
      3.252  0.0000E+00  0.1600E+01
      3.327  0.0000E+00  0.1600E+01
      3.402  0.0000E+00  0.1600E+01
      3.477  0.0000E+00  0.1600E+01
      3.552  0.0000E+00  0.1600E+01
      3.627  0.0000E+00  0.1600E+01
      3.701  0.0000E+00  0.1600E+01
