    5    5   10    1
  0.1024000E+03  0.8000000E-09  0.8000000E-09  0.8000000E-09  0.5000000E-15
  1.000000000000000E-004
  CAR 
 unknown system                          
    8    1    8
 
  0.0000000E+00  0.0000000E+00  0.0000000E+00  0.1000000E+01
   1      -16.762961
   2       -9.123409
   3       -9.123409
   4       -9.123409
   5       -0.666392
   6        1.701480
   7        1.701485
   8        1.701485
