       N       E                     dE             d eps       ncg     rms          rms(c)
DAV:   1     0.367230077102E+02    0.36723E+02   -0.15117E+03    16   0.373E+02
DAV:   2    -0.220543952472E+02   -0.58777E+02   -0.58777E+02    32   0.864E+01
DAV:   3    -0.272203608944E+02   -0.51660E+01   -0.51660E+01    16   0.446E+01
DAV:   4    -0.273537252385E+02   -0.13336E+00   -0.13336E+00    32   0.775E+00
DAV:   5    -0.273537406501E+02   -0.15412E-04   -0.15412E-04    16   0.927E-02    0.833E+00
DAV:   6    -0.245431156638E+02    0.28106E+01   -0.80496E+00    24   0.159E+01    0.378E+00
DAV:   7    -0.240348422948E+02    0.50827E+00   -0.90462E-01    32   0.513E+00    0.186E+00
DAV:   8    -0.238835813761E+02    0.15126E+00   -0.17461E-01    16   0.289E+00    0.258E-01
DAV:   9    -0.238827307745E+02    0.85060E-03   -0.10747E-02    16   0.576E-01    0.153E-01
DAV:  10    -0.238812864194E+02    0.14444E-02   -0.12509E-03    16   0.254E-01    0.728E-02
DAV:  11    -0.238894596670E+02   -0.81732E-02   -0.23723E-03    16   0.307E-01    0.803E-02
DAV:  12    -0.238912051752E+02   -0.17455E-02   -0.59427E-04    16   0.170E-01    0.187E-02
DAV:  13    -0.238925206698E+02   -0.13155E-02   -0.16187E-04    16   0.763E-02    0.690E-03
DAV:  14    -0.238925567920E+02   -0.36122E-04   -0.27095E-06    16   0.107E-02
   1 F= -.23892557E+02 E0= -.23892557E+02  d E =-.238926E+02
       N       E                     dE             d eps       ncg     rms          rms(c)
DAV:   1    -0.239081613862E+02   -0.15641E-01   -0.74046E-01    16   0.736E+00    0.467E-01
DAV:   2    -0.239006519181E+02    0.75095E-02   -0.20626E-02    32   0.871E-01    0.173E-01
DAV:   3    -0.239000491228E+02    0.60280E-03   -0.70387E-03    16   0.450E-01    0.548E-02
DAV:   4    -0.239000429789E+02    0.61439E-05   -0.80551E-05    24   0.740E-02
   2 F= -.23900043E+02 E0= -.23900043E+02  d E =-.748619E-02
       N       E                     dE             d eps       ncg     rms          rms(c)
DAV:   1    -0.239042606645E+02   -0.42115E-02   -0.91448E-02    16   0.257E+00    0.190E-01
DAV:   2    -0.239030104053E+02    0.12503E-02   -0.33383E-03    24   0.323E-01    0.705E-02
DAV:   3    -0.239029278593E+02    0.82546E-04   -0.12975E-03    16   0.199E-01    0.252E-02
DAV:   4    -0.239029348691E+02   -0.70097E-05   -0.18230E-05    32   0.356E-02
   3 F= -.23902935E+02 E0= -.23902935E+02  d E =-.103781E-01
