<?xml version="1.0" encoding="ISO-8859-1"?>
<modeling>
 <generator>
  <i name="program" type="string">vasp </i>
  <i name="version" type="string">5.2.12  </i>
  <i name="subversion" type="string">11Nov11 complex                                                      parallel </i>
  <i name="platform" type="string">LinuxIFC </i>
  <i name="date" type="string">2012 10 30 </i>
  <i name="time" type="string">23:19:17 </i>
 </generator>
 <incar>
  <i type="string" name="PREC">normal</i>
  <i type="int" name="IBRION">     2</i>
  <i type="int" name="NSW">    10</i>
  <i name="ENCUT">    300.00000000</i>
  <i type="int" name="ISMEAR">     0</i>
 </incar>
 <kpoints>
  <generation param="Monkhorst-Pack">
   <v type="int" name="divisions">       1        1        1 </v>
   <v name="usershift">      0.00000000       0.00000000       0.00000000 </v>
   <v name="genvec1">      1.00000000       0.00000000       0.00000000 </v>
   <v name="genvec2">      0.00000000       1.00000000       0.00000000 </v>
   <v name="genvec3">      0.00000000       0.00000000       1.00000000 </v>
   <v name="shift">      0.00000000       0.00000000       0.00000000 </v>
  </generation>
  <varray name="kpointlist" >
   <v>       0.00000000       0.00000000       0.00000000 </v>
  </varray>
  <varray name="weights" >
   <v>       1.00000000 </v>
  </varray>
 </kpoints>
 <parameters>
  <separator name="general" >
   <i type="string" name="SYSTEM">unknown system</i>
   <i type="logical" name="LCOMPAT"> F  </i>
  </separator>
  <separator name="electronic" >
   <i type="string" name="PREC">normal</i>
   <i name="ENMAX">    300.00000000</i>
   <i name="ENAUG">    644.87300000</i>
   <i name="EDIFF">      0.00010000</i>
   <i type="int" name="IALGO">    38</i>
   <i type="int" name="IWAVPR">    11</i>
   <i type="int" name="NBANDS">     8</i>
   <i name="NELECT">      8.00000000</i>
   <i type="int" name="TURBO">     0</i>
   <i type="int" name="IRESTART">     0</i>
   <i type="int" name="NREBOOT">     0</i>
   <i type="int" name="NMIN">     0</i>
   <i name="EREF">      0.00000000</i>
   <separator name="electronic smearing" >
    <i type="int" name="ISMEAR">     0</i>
    <i name="SIGMA">      0.20000000</i>
    <i name="KSPACING">      0.50000000</i>
    <i type="logical" name="KGAMMA"> T  </i>
   </separator>
   <separator name="electronic projectors" >
    <i type="logical" name="LREAL"> F  </i>
    <v name="ROPT">      0.00000000      0.00000000</v>
    <i type="int" name="LMAXPAW">  -100</i>
    <i type="int" name="LMAXMIX">     2</i>
    <i type="logical" name="NLSPLINE"> F  </i>
   </separator>
   <separator name="electronic startup" >
    <i type="int" name="ISTART">     0</i>
    <i type="int" name="ICHARG">     2</i>
    <i type="int" name="INIWAV">     1</i>
   </separator>
   <separator name="electronic spin" >
    <i type="int" name="ISPIN">     1</i>
    <i type="logical" name="LNONCOLLINEAR"> F  </i>
    <v name="MAGMOM">      1.00000000      1.00000000      1.00000000      1.00000000      1.00000000</v>
    <i name="NUPDOWN">     -1.00000000</i>
    <i type="logical" name="LSORBIT"> F  </i>
    <v name="SAXIS">      0.00000000      0.00000000      1.00000000</v>
    <i type="logical" name="LSPIRAL"> F  </i>
    <v name="QSPIRAL">      0.00000000      0.00000000      0.00000000</v>
    <i type="logical" name="LZEROZ"> F  </i>
   </separator>
   <separator name="electronic exchange-correlation" >
    <i type="logical" name="LASPH"> F  </i>
    <i type="logical" name="LMETAGGA"> F  </i>
   </separator>
   <separator name="electronic convergence" >
    <i type="int" name="NELM">    60</i>
    <i type="int" name="NELMDL">    -5</i>
    <i type="int" name="NELMIN">     2</i>
    <i name="ENINI">    300.00000000</i>
    <separator name="electronic convergence detail" >
     <i type="logical" name="LDIAG"> T  </i>
     <i type="logical" name="LSUBROT"> T  </i>
     <i name="WEIMIN">      0.00100000</i>
     <i name="EBREAK">      0.00000313</i>
     <i name="DEPER">      0.30000000</i>
     <i type="int" name="NRMM">     4</i>
     <i name="TIME">      0.40000000</i>
    </separator>
   </separator>
   <separator name="electronic mixer" >
    <i name="AMIX">      0.40000000</i>
    <i name="BMIX">      1.00000000</i>
    <i name="AMIN">      0.10000000</i>
    <i name="AMIX_MAG">      1.60000000</i>
    <i name="BMIX_MAG">      1.00000000</i>
    <separator name="electronic mixer details" >
     <i type="int" name="IMIX">     4</i>
     <i type="int" name="MAXMIX">   -45</i>
     <i name="WC">    100.00000000</i>
     <i type="int" name="INIMIX">     1</i>
     <i type="int" name="MIXPRE">     1</i>
     <i type="int" name="MREMOVE">     5</i>
    </separator>
   </separator>
   <separator name="electronic dipolcorrection" >
    <i type="logical" name="LDIPOL"> F  </i>
    <i type="logical" name="LMONO"> F  </i>
    <i type="int" name="IDIPOL">     0</i>
    <i name="EPSILON">      1.00000000</i>
    <v name="DIPOL">   -100.00000000   -100.00000000   -100.00000000</v>
    <i name="EFIELD">      0.00000000</i>
   </separator>
  </separator>
  <separator name="grids" >
   <i type="int" name="NGX">    36</i>
   <i type="int" name="NGY">    36</i>
   <i type="int" name="NGZ">    36</i>
   <i type="int" name="NGXF">    72</i>
   <i type="int" name="NGYF">    72</i>
   <i type="int" name="NGZF">    72</i>
   <i type="logical" name="ADDGRID"> F  </i>
  </separator>
  <separator name="ionic" >
   <i type="int" name="NSW">    10</i>
   <i type="int" name="IBRION">     2</i>
   <i type="int" name="ISIF">     2</i>
   <i name="PSTRESS">      0.00000000</i>
   <i name="EDIFFG">      0.00100000</i>
   <i type="int" name="NFREE">     1</i>
   <i name="POTIM">      0.50000000</i>
   <i name="SMASS">     -3.00000000</i>
   <i name="SCALEE">      1.00000000</i>
  </separator>
  <separator name="ionic md" >
   <i name="TEBEG">      0.00010000</i>
   <i name="TEEND">      0.00010000</i>
   <i type="int" name="NBLOCK">     1</i>
   <i type="int" name="KBLOCK">    10</i>
   <i type="int" name="NPACO">   256</i>
   <i name="APACO">     16.00000000</i>
  </separator>
  <separator name="symmetry" >
   <i type="int" name="ISYM">     2</i>
   <i name="SYMPREC">      0.00001000</i>
  </separator>
  <separator name="dos" >
   <i type="logical" name="LORBIT"> F  </i>
   <v name="RWIGS">     -1.00000000     -1.00000000</v>
   <i type="int" name="NEDOS">   301</i>
   <i name="EMIN">     10.00000000</i>
   <i name="EMAX">    -10.00000000</i>
   <i name="EFERMI">      0.00000000</i>
  </separator>
  <separator name="writing" >
   <i type="int" name="NWRITE">     2</i>
   <i type="logical" name="LWAVE"> T  </i>
   <i type="logical" name="LCHARG"> T  </i>
   <i type="logical" name="LPARD"> F  </i>
   <i type="logical" name="LVTOT"> F  </i>
   <i type="logical" name="LVHAR"> F  </i>
   <i type="logical" name="LELF"> F  </i>
   <i type="logical" name="LOPTICS"> F  </i>
   <v name="STM">      0.00000000      0.00000000      0.00000000      0.00000000      0.00000000      0.00000000      0.00000000</v>
  </separator>
  <separator name="performance" >
   <i type="int" name="NPAR">     1</i>
   <i type="int" name="NSIM">     4</i>
   <i type="int" name="NBLK">    -1</i>
   <i type="logical" name="LPLANE"> T  </i>
   <i type="logical" name="LSCALAPACK"> F  </i>
   <i type="logical" name="LSCAAWARE"> F  </i>
   <i type="logical" name="LSCALU"> F  </i>
   <i type="logical" name="LASYNC"> F  </i>
   <i type="logical" name="LORBITALREAL"> F  </i>
  </separator>
  <separator name="miscellaneous" >
   <i type="int" name="IDIOT">     3</i>
   <i type="logical" name="LMUSIC"> F  </i>
   <v name="POMASS">      1.00000000     12.01100000</v>
   <v name="DARWINR">      0.00000000      0.00000000</v>
   <v name="DARWINV">      1.00000000      1.00000000</v>
   <i type="logical" name="LCORR"> T  </i>
  </separator>
  <i type="logical" name="GGA_COMPAT"> T  </i>
  <i type="logical" name="LBERRY"> F  </i>
  <i type="int" name="ICORELEVEL">     0</i>
  <i type="logical" name="LDAU"> F  </i>
  <i type="int" name="I_CONSTRAINED_M">     0</i>
  <separator name="electronic exchange-correlation" >
   <i type="string" name="GGA">--</i>
   <i type="int" name="VOSKOWN">     0</i>
   <i type="logical" name="LHFCALC"> F  </i>
   <i type="string" name="PRECFOCK"></i>
   <i type="logical" name="LHFONE"> F  </i>
   <i type="logical" name="LRHFCALC"> F  </i>
   <i type="logical" name="LTHOMAS"> F  </i>
   <i type="logical" name="LMODELHF"> F  </i>
   <i name="ENCUT4O">     -1.00000000</i>
   <i type="int" name="EXXOEP">     0</i>
   <i type="int" name="FOURORBIT">     0</i>
   <i name="AEXX">      0.00000000</i>
   <i name="HFALPHA">      0.00000000</i>
   <i name="ALDAX">      1.00000000</i>
   <i name="AGGAX">      1.00000000</i>
   <i name="ALDAC">      1.00000000</i>
   <i name="AGGAC">      1.00000000</i>
   <i type="int" name="NKREDX">     1</i>
   <i type="int" name="NKREDY">     1</i>
   <i type="int" name="NKREDZ">     1</i>
   <i type="logical" name="SHIFTRED"> F  </i>
   <i type="logical" name="ODDONLY"> F  </i>
   <i type="logical" name="EVENONLY"> F  </i>
   <i type="int" name="LMAXFOCK">     0</i>
   <i type="int" name="NMAXFOCKAE">     0</i>
   <i type="logical" name="LFOCKAEDFT"> F  </i>
   <i name="HFSCREEN">      0.00000000</i>
   <i name="HFSCREENC">      0.00000000</i>
  </separator>
  <separator name="vdW DFT" >
   <i type="logical" name="LUSE_VDW"> F  </i>
   <i name="Zab_VDW">     -0.84910000</i>
   <i name="PARAM1">      0.12340000</i>
   <i name="PARAM2">      1.00000000</i>
   <i name="PARAM3">      0.00000000</i>
  </separator>
  <separator name="model GW" >
   <i type="int" name="MODEL_GW">     0</i>
   <i name="MODEL_EPS0">     61.44000000</i>
   <i name="MODEL_ALPHA">      1.00000000</i>
  </separator>
  <separator name="linear response parameters" >
   <i type="logical" name="LEPSILON"> F  </i>
   <i type="logical" name="LRPA"> F  </i>
   <i type="logical" name="LNABLA"> F  </i>
   <i type="logical" name="LVEL"> F  </i>
   <i type="int" name="KINTER">     0</i>
   <i name="CSHIFT">      0.10000000</i>
   <i name="OMEGAMAX">     -1.00000000</i>
  </separator>
  <separator name="orbital magnetization" >
   <i type="logical" name="NUCIND"> F  </i>
   <v name="MAGPOS">      0.00000000      0.00000000      0.00000000</v>
   <i type="logical" name="LNICSALL"> T  </i>
   <i type="logical" name="ORBITALMAG"> F  </i>
   <i type="logical" name="LMAGBLOCH"> F  </i>
   <i type="logical" name="LCHIMAG"> F  </i>
   <i type="logical" name="LGAUGE"> T  </i>
   <i type="int" name="MAGATOM">     0</i>
   <v name="MAGDIPOL">      0.00000000      0.00000000      0.00000000</v>
   <v name="AVECCONST">      0.00000000      0.00000000      0.00000000</v>
  </separator>
  <separator name="response functions" >
   <i type="logical" name="LADDER"> F  </i>
   <i type="logical" name="LHARTREE"> T  </i>
   <i type="int" name="IBSE">     0</i>
   <i type="logical" name="LTCTE"> F  </i>
   <i type="logical" name="LTETE"> F  </i>
   <i type="logical" name="LFXCEPS"> F  </i>
   <i type="logical" name="L2ORDER"> F  </i>
   <i type="logical" name="LUSEW"> F  </i>
   <i name="ENCUTGW">     -2.00000000</i>
   <i name="ENCUTGWSOFT">     -2.00000000</i>
   <i name="ENCUTLF">     -1.00000000</i>
   <i type="int" name="LMAXMP2">    -1</i>
   <i name="SCISSOR">      0.00000000</i>
   <i type="int" name="NOMEGA">     0</i>
   <i type="int" name="NOMEGAR">     0</i>
   <i type="int" name="NBANDSGW">    -1</i>
   <i type="int" name="NBANDSO">    -1</i>
   <i type="int" name="NBANDSV">    -1</i>
   <i name="OPTEMAX">      0.00000000</i>
   <i type="int" name="NELM">     1</i>
   <i type="int" name="DIM">     3</i>
   <i type="int" name="ANTIRES">     0</i>
   <i name="OMEGAMAX">    -30.00000000</i>
   <i name="OMEGATL">   -200.00000000</i>
   <i type="int" name="OMEGAGRID">     0</i>
   <i name="CSHIFT">     -0.10000000</i>
   <i type="logical" name="SELFENERGY"> F  </i>
   <i type="logical" name="LSPECTRAL"> F  </i>
   <i type="logical" name="ODDONLYGW"> F  </i>
   <i type="logical" name="EVENONLYGW"> F  </i>
   <i type="int" name="NKREDLFX">     1</i>
   <i type="int" name="NKREDLFY">     1</i>
   <i type="int" name="NKREDLFZ">     1</i>
   <i type="int" name="MAXMEM">  1800</i>
   <i type="int" name="TELESCOPE">     0</i>
  </separator>
 </parameters>
 <atominfo>
  <atoms>       5 </atoms>
  <types>       2 </types>
  <array name="atoms" >
   <dimension dim="1">ion</dimension>
   <field type="string">element</field>
   <field type="int">atomtype</field>
   <set>
    <rc><c>H </c><c>   1</c></rc>
    <rc><c>H </c><c>   1</c></rc>
    <rc><c>H </c><c>   1</c></rc>
    <rc><c>H </c><c>   1</c></rc>
    <rc><c>C </c><c>   2</c></rc>
   </set>
  </array>
  <array name="atomtypes" >
   <dimension dim="1">type</dimension>
   <field type="int">atomspertype</field>
   <field type="string">element</field>
   <field>mass</field>
   <field>valence</field>
   <field type="string">pseudopotential</field>
   <set>
    <rc><c>   4</c><c>H </c><c>      1.00000000</c><c>      1.00000000</c><c> PAW_PBE H 15Jun2001                    </c></rc>
    <rc><c>   1</c><c>C </c><c>     12.01100000</c><c>      4.00000000</c><c> PAW_PBE C 08Apr2002                    </c></rc>
   </set>
  </array>
 </atominfo>
 <structure name="initialpos" >
  <crystal>
   <varray name="basis" >
    <v>       8.00000000       0.00000000       0.00000000 </v>
    <v>       0.00000000       8.00000000       0.00000000 </v>
    <v>       0.00000000       0.00000000       8.00000000 </v>
   </varray>
   <i name="volume">    512.00000000 </i>
   <varray name="rec_basis" >
    <v>       0.12500000       0.00000000       0.00000000 </v>
    <v>       0.00000000       0.12500000       0.00000000 </v>
    <v>       0.00000000       0.00000000       0.12500000 </v>
   </varray>
  </crystal>
  <varray name="positions" >
   <v>       0.07863975       0.07863975       0.07863975 </v>
   <v>       0.92136025       0.92136025       0.07863975 </v>
   <v>       0.07863975       0.92136025       0.92136025 </v>
   <v>       0.92136025       0.07863975       0.92136025 </v>
   <v>       0.00000000       0.00000000       0.00000000 </v>
  </varray>
 </structure>
 <calculation>
  <scstep>
   <time name="dav">    0.18    0.18</time>
   <time name="total">    0.75    0.75</time>
   <energy>
    <i name="alphaZ">      0.47054448 </i>
    <i name="ewald">     98.76290623 </i>
    <i name="hartreedc">   -215.08095114 </i>
    <i name="XCdc">     22.64688930 </i>
    <i name="pawpsdc">     40.95674594 </i>
    <i name="pawaedc">    -42.14325651 </i>
    <i name="eentropy">      0.00000000 </i>
    <i name="bandstr">    -65.57287578 </i>
    <i name="atom">    196.68300519 </i>
    <i name="e_fr_energy">     36.72300771 </i>
    <i name="e_wo_entrp">     36.72300771 </i>
    <i name="e_0_energy">     36.72300771 </i>
   </energy>
  </scstep>
  <scstep>
   <time name="dav">    0.30    0.30</time>
   <time name="total">    0.30    0.32</time>
   <energy>
    <i name="e_fr_energy">    -22.05439525 </i>
    <i name="e_wo_entrp">    -22.05439525 </i>
    <i name="e_0_energy">    -22.05439525 </i>
   </energy>
  </scstep>
  <scstep>
   <time name="dav">    0.17    0.17</time>
   <time name="total">    0.17    0.19</time>
   <energy>
    <i name="e_fr_energy">    -27.22036089 </i>
    <i name="e_wo_entrp">    -27.22036089 </i>
    <i name="e_0_energy">    -27.22036089 </i>
   </energy>
  </scstep>
  <scstep>
   <time name="dav">    0.30    0.30</time>
   <time name="total">    0.30    0.31</time>
   <energy>
    <i name="e_fr_energy">    -27.35372524 </i>
    <i name="e_wo_entrp">    -27.35372524 </i>
    <i name="e_0_energy">    -27.35372524 </i>
   </energy>
  </scstep>
  <scstep>
   <time name="dav">    0.20    0.20</time>
   <time name="total">    0.29    0.51</time>
   <energy>
    <i name="e_fr_energy">    -27.35374065 </i>
    <i name="e_wo_entrp">    -27.35374065 </i>
    <i name="e_0_energy">    -27.35374065 </i>
   </energy>
  </scstep>
  <scstep>
   <time name="dav">    0.27    0.27</time>
   <time name="total">    0.99    1.00</time>
   <energy>
    <i name="e_fr_energy">    -24.54311566 </i>
    <i name="e_wo_entrp">    -24.54311566 </i>
    <i name="e_0_energy">    -24.54311566 </i>
   </energy>
  </scstep>
  <scstep>
   <time name="dav">    0.34    0.34</time>
   <time name="total">    1.02    1.04</time>
   <energy>
    <i name="e_fr_energy">    -24.03484229 </i>
    <i name="e_wo_entrp">    -24.03484229 </i>
    <i name="e_0_energy">    -24.03484229 </i>
   </energy>
  </scstep>
  <scstep>
   <time name="dav">    0.19    0.19</time>
   <time name="total">    0.88    0.94</time>
   <energy>
    <i name="e_fr_energy">    -23.88358138 </i>
    <i name="e_wo_entrp">    -23.88358138 </i>
    <i name="e_0_energy">    -23.88358138 </i>
   </energy>
  </scstep>
  <scstep>
   <time name="dav">    0.19    0.19</time>
   <time name="total">    0.87    0.89</time>
   <energy>
    <i name="e_fr_energy">    -23.88273077 </i>
    <i name="e_wo_entrp">    -23.88273077 </i>
    <i name="e_0_energy">    -23.88273077 </i>
   </energy>
  </scstep>
  <scstep>
   <time name="dav">    0.19    0.19</time>
   <time name="total">    0.86    0.92</time>
   <energy>
    <i name="e_fr_energy">    -23.88128642 </i>
    <i name="e_wo_entrp">    -23.88128642 </i>
    <i name="e_0_energy">    -23.88128642 </i>
   </energy>
  </scstep>
  <scstep>
   <time name="dav">    0.20    0.20</time>
   <time name="total">    0.88    0.89</time>
   <energy>
    <i name="e_fr_energy">    -23.88945967 </i>
    <i name="e_wo_entrp">    -23.88945967 </i>
    <i name="e_0_energy">    -23.88945967 </i>
   </energy>
  </scstep>
  <scstep>
   <time name="dav">    0.20    0.20</time>
   <time name="total">    0.87    0.90</time>
   <energy>
    <i name="e_fr_energy">    -23.89120518 </i>
    <i name="e_wo_entrp">    -23.89120518 </i>
    <i name="e_0_energy">    -23.89120518 </i>
   </energy>
  </scstep>
  <scstep>
   <time name="dav">    0.20    0.20</time>
   <time name="total">    0.88    0.89</time>
   <energy>
    <i name="e_fr_energy">    -23.89252067 </i>
    <i name="e_wo_entrp">    -23.89252067 </i>
    <i name="e_0_energy">    -23.89252067 </i>
   </energy>
  </scstep>
  <scstep>
   <time name="dav">    0.20    0.20</time>
   <time name="total">    0.78    0.79</time>
   <energy>
    <i name="alphaZ">      0.47054448 </i>
    <i name="ewald">     98.76290623 </i>
    <i name="hartreedc">   -255.09122374 </i>
    <i name="XCdc">     25.40040212 </i>
    <i name="pawpsdc">     91.03080906 </i>
    <i name="pawaedc">    -92.36276678 </i>
    <i name="eentropy">      0.00000000 </i>
    <i name="bandstr">    -88.78623335 </i>
    <i name="atom">    196.68300519 </i>
    <i name="e_fr_energy">    -23.89255679 </i>
    <i name="e_wo_entrp">    -23.89255679 </i>
    <i name="e_0_energy">    -23.89255679 </i>
   </energy>
  </scstep>
  <parameters_embedded>
   <separator name="dft+d2" >
    <i type="logical" name="LVDW"> F  </i>
   </separator>
  </parameters_embedded>
  <structure>
   <crystal>
    <varray name="basis" >
     <v>       8.00000000       0.00000000       0.00000000 </v>
     <v>       0.00000000       8.00000000       0.00000000 </v>
     <v>       0.00000000       0.00000000       8.00000000 </v>
    </varray>
    <i name="volume">    512.00000000 </i>
    <varray name="rec_basis" >
     <v>       0.12500000       0.00000000       0.00000000 </v>
     <v>       0.00000000       0.12500000       0.00000000 </v>
     <v>       0.00000000       0.00000000       0.12500000 </v>
    </varray>
   </crystal>
   <varray name="positions" >
    <v>       0.07863975       0.07863975       0.07863975 </v>
    <v>       0.92136025       0.92136025       0.07863975 </v>
    <v>       0.07863975       0.92136025       0.92136025 </v>
    <v>       0.92136025       0.07863975       0.92136025 </v>
    <v>       0.00000000       0.00000000       0.00000000 </v>
   </varray>
  </structure>
  <varray name="forces" >
   <v>       0.23490416       0.23490416       0.23490416 </v>
   <v>      -0.23490416      -0.23490416       0.23490416 </v>
   <v>       0.23490416      -0.23490416      -0.23490416 </v>
   <v>      -0.23490416       0.23490416      -0.23490416 </v>
   <v>       0.00000000       0.00000000       0.00000000 </v>
  </varray>
  <varray name="stress" >
   <v>      -4.73783523       0.00000000       0.00000000 </v>
   <v>       0.00000000      -4.73783523       0.00000000 </v>
   <v>       0.00000000       0.00000000      -4.73783523 </v>
  </varray>
  <energy>
   <i name="e_fr_energy">    -23.89255679 </i>
   <i name="e_wo_entrp">    -23.89255679 </i>
   <i name="e_0_energy">      0.00000000 </i>
  </energy>
  <time name="totalsc">   11.85   13.04</time>
 </calculation>
 <calculation>
  <scstep>
   <time name="dav">    0.20    0.20</time>
   <time name="total">    0.89    0.90</time>
   <energy>
    <i name="alphaZ">      0.47054448 </i>
    <i name="ewald">     94.24070343 </i>
    <i name="hartreedc">   -252.47496808 </i>
    <i name="XCdc">     25.26498309 </i>
    <i name="pawpsdc">     91.02259204 </i>
    <i name="pawaedc">    -92.35461070 </i>
    <i name="eentropy">      0.00000000 </i>
    <i name="bandstr">    -86.76041084 </i>
    <i name="atom">    196.68300519 </i>
    <i name="e_fr_energy">    -23.90816139 </i>
    <i name="e_wo_entrp">    -23.90816139 </i>
    <i name="e_0_energy">    -23.90816139 </i>
   </energy>
  </scstep>
  <scstep>
   <time name="dav">    0.35    0.35</time>
   <time name="total">    1.00    1.01</time>
   <energy>
    <i name="e_fr_energy">    -23.90065192 </i>
    <i name="e_wo_entrp">    -23.90065192 </i>
    <i name="e_0_energy">    -23.90065192 </i>
   </energy>
  </scstep>
  <scstep>
   <time name="dav">    0.20    0.20</time>
   <time name="total">    0.84    0.90</time>
   <energy>
    <i name="e_fr_energy">    -23.90004912 </i>
    <i name="e_wo_entrp">    -23.90004912 </i>
    <i name="e_0_energy">    -23.90004912 </i>
   </energy>
  </scstep>
  <scstep>
   <time name="dav">    0.27    0.27</time>
   <time name="total">    0.82    1.24</time>
   <energy>
    <i name="alphaZ">      0.47054448 </i>
    <i name="ewald">     94.24070343 </i>
    <i name="hartreedc">   -251.13066428 </i>
    <i name="XCdc">     25.18801481 </i>
    <i name="pawpsdc">     87.30263018 </i>
    <i name="pawaedc">    -88.61790557 </i>
    <i name="eentropy">      0.00000000 </i>
    <i name="bandstr">    -88.03637123 </i>
    <i name="atom">    196.68300519 </i>
    <i name="e_fr_energy">    -23.90004298 </i>
    <i name="e_wo_entrp">    -23.90004298 </i>
    <i name="e_0_energy">    -23.90004298 </i>
   </energy>
  </scstep>
  <structure>
   <crystal>
    <varray name="basis" >
     <v>       8.00000000       0.00000000       0.00000000 </v>
     <v>       0.00000000       8.00000000       0.00000000 </v>
     <v>       0.00000000       0.00000000       8.00000000 </v>
    </varray>
    <i name="volume">    512.00000000 </i>
    <varray name="rec_basis" >
     <v>       0.12500000       0.00000000       0.00000000 </v>
     <v>       0.00000000       0.12500000       0.00000000 </v>
     <v>       0.00000000       0.00000000       0.12500000 </v>
    </varray>
   </crystal>
   <varray name="positions" >
    <v>       0.08005630       0.08005630       0.08005630 </v>
    <v>       0.91994370       0.91994370       0.08005630 </v>
    <v>       0.08005630       0.91994370       0.91994370 </v>
    <v>       0.91994370       0.08005630       0.91994370 </v>
    <v>       0.00000000       0.00000000       0.00000000 </v>
   </varray>
  </structure>
  <varray name="forces" >
   <v>      -0.12571644      -0.12571644      -0.12571644 </v>
   <v>       0.12571644       0.12571644      -0.12571644 </v>
   <v>      -0.12571644       0.12571644       0.12571644 </v>
   <v>       0.12571644      -0.12571644       0.12571644 </v>
   <v>       0.00000000       0.00000000       0.00000000 </v>
  </varray>
  <varray name="stress" >
   <v>      -7.33141821       0.00000000       0.00000000 </v>
   <v>       0.00000000      -7.33141821       0.00000000 </v>
   <v>       0.00000000       0.00000000      -7.33141821 </v>
  </varray>
  <energy>
   <i name="e_fr_energy">    -23.90004298 </i>
   <i name="e_wo_entrp">    -23.90004298 </i>
   <i name="e_0_energy">      0.00000000 </i>
  </energy>
  <time name="totalsc">    4.80    5.54</time>
 </calculation>
 <calculation>
  <scstep>
   <time name="dav">    0.20    0.20</time>
   <time name="total">    0.85    0.96</time>
   <energy>
    <i name="alphaZ">      0.47054448 </i>
    <i name="ewald">     95.79844947 </i>
    <i name="hartreedc">   -251.93644861 </i>
    <i name="XCdc">     25.22541623 </i>
    <i name="pawpsdc">     86.71561856 </i>
    <i name="pawaedc">    -88.03092675 </i>
    <i name="eentropy">      0.00000000 </i>
    <i name="bandstr">    -88.82991923 </i>
    <i name="atom">    196.68300519 </i>
    <i name="e_fr_energy">    -23.90426066 </i>
    <i name="e_wo_entrp">    -23.90426066 </i>
    <i name="e_0_energy">    -23.90426066 </i>
   </energy>
  </scstep>
  <scstep>
   <time name="dav">    0.27    0.27</time>
   <time name="total">    0.94    0.95</time>
   <energy>
    <i name="e_fr_energy">    -23.90301041 </i>
    <i name="e_wo_entrp">    -23.90301041 </i>
    <i name="e_0_energy">    -23.90301041 </i>
   </energy>
  </scstep>
  <scstep>
   <time name="dav">    0.22    0.22</time>
   <time name="total">    0.97    1.02</time>
   <energy>
    <i name="e_fr_energy">    -23.90292786 </i>
    <i name="e_wo_entrp">    -23.90292786 </i>
    <i name="e_0_energy">    -23.90292786 </i>
   </energy>
  </scstep>
  <scstep>
   <time name="dav">    0.38    0.38</time>
   <time name="total">    1.03    1.04</time>
   <energy>
    <i name="alphaZ">      0.47054448 </i>
    <i name="ewald">     95.79844947 </i>
    <i name="hartreedc">   -252.52630095 </i>
    <i name="XCdc">     25.25963991 </i>
    <i name="pawpsdc">     88.14850703 </i>
    <i name="pawaedc">    -89.47040248 </i>
    <i name="eentropy">      0.00000000 </i>
    <i name="bandstr">    -88.26637752 </i>
    <i name="atom">    196.68300519 </i>
    <i name="e_fr_energy">    -23.90293487 </i>
    <i name="e_wo_entrp">    -23.90293487 </i>
    <i name="e_0_energy">    -23.90293487 </i>
   </energy>
  </scstep>
  <structure>
   <crystal>
    <varray name="basis" >
     <v>       8.00000000       0.00000000       0.00000000 </v>
     <v>       0.00000000       8.00000000       0.00000000 </v>
     <v>       0.00000000       0.00000000       8.00000000 </v>
    </varray>
    <i name="volume">    512.00000000 </i>
    <varray name="rec_basis" >
     <v>       0.12500000       0.00000000       0.00000000 </v>
     <v>       0.00000000       0.12500000       0.00000000 </v>
     <v>       0.00000000       0.00000000       0.12500000 </v>
    </varray>
   </crystal>
   <varray name="positions" >
    <v>       0.07956247       0.07956247       0.07956247 </v>
    <v>       0.92043753       0.92043753       0.07956247 </v>
    <v>       0.07956247       0.92043753       0.92043753 </v>
    <v>       0.92043753       0.07956247       0.92043753 </v>
    <v>       0.00000000       0.00000000       0.00000000 </v>
   </varray>
  </structure>
  <varray name="forces" >
   <v>       0.00641332       0.00641332       0.00641332 </v>
   <v>      -0.00641332      -0.00641332       0.00641332 </v>
   <v>       0.00641332      -0.00641332      -0.00641332 </v>
   <v>      -0.00641332       0.00641332      -0.00641332 </v>
   <v>       0.00000000       0.00000000       0.00000000 </v>
  </varray>
  <varray name="stress" >
   <v>      -6.60991487       0.00000000       0.00000000 </v>
   <v>       0.00000000      -6.60991487       0.00000000 </v>
   <v>       0.00000000       0.00000000      -6.60991487 </v>
  </varray>
  <energy>
   <i name="e_fr_energy">    -23.90293487 </i>
   <i name="e_wo_entrp">    -23.90293487 </i>
   <i name="e_0_energy">      0.00000000 </i>
  </energy>
  <time name="totalsc">    5.05    5.36</time>
  <eigenvalues>
   <array>
    <dimension dim="1">band</dimension>
    <dimension dim="2">kpoint</dimension>
    <dimension dim="3">spin</dimension>
    <field>eigene</field>
    <field>occ</field>
    <set>
     <set comment="spin 1">
      <set comment="kpoint 1">
       <r>  -16.7630    1.0000 </r>
       <r>   -9.1234    1.0000 </r>
       <r>   -9.1234    1.0000 </r>
       <r>   -9.1234    1.0000 </r>
       <r>   -0.6664    0.0000 </r>
       <r>    1.7015    0.0000 </r>
       <r>    1.7015    0.0000 </r>
       <r>    1.7015    0.0000 </r>
      </set>
     </set>
    </set>
   </array>
  </eigenvalues>
  <separator name="orbital magnetization" >
   <v name="MAGDIPOLOUT">      0.00000000      0.00000000      0.00000000</v>
  </separator>
  <dos>
   <i name="efermi">     -8.12964354 </i>
   <total>
    <array>
     <dimension dim="1">gridpoints</dimension>
     <dimension dim="2">spin</dimension>
     <field>energy</field>
     <field>total</field>
     <field>integrated</field>
     <set>
      <set comment="spin 1">
       <r>   -18.7630     0.0000     0.0000 </r>
       <r>   -18.6881     0.0000     0.0000 </r>
       <r>   -18.6132     0.0000     0.0000 </r>
       <r>   -18.5383     0.0000     0.0000 </r>
       <r>   -18.4634     0.0000     0.0000 </r>
       <r>   -18.3886     0.0000     0.0000 </r>
       <r>   -18.3137     0.0000     0.0000 </r>
       <r>   -18.2388     0.0000     0.0000 </r>
       <r>   -18.1639     0.0000     0.0000 </r>
       <r>   -18.0890     0.0000     0.0000 </r>
       <r>   -18.0141     0.0000     0.0000 </r>
       <r>   -17.9393     0.0000     0.0000 </r>
       <r>   -17.8644     0.0000     0.0000 </r>
       <r>   -17.7895     0.0000     0.0000 </r>
       <r>   -17.7146     0.0000     0.0000 </r>
       <r>   -17.6397     0.0000     0.0000 </r>
       <r>   -17.5649     0.0000     0.0000 </r>
       <r>   -17.4900     0.0000     0.0000 </r>
       <r>   -17.4151     0.0000     0.0000 </r>
       <r>   -17.3402     0.0005     0.0000 </r>
       <r>   -17.2653     0.0045     0.0004 </r>
       <r>   -17.1904     0.0283     0.0025 </r>
       <r>   -17.1156     0.1356     0.0127 </r>
       <r>   -17.0407     0.4927     0.0496 </r>
       <r>   -16.9658     1.3612     0.1515 </r>
       <r>   -16.8909     2.8588     0.3656 </r>
       <r>   -16.8160     4.5653     0.7074 </r>
       <r>   -16.7412     5.5435     1.1225 </r>
       <r>   -16.6663     5.1186     1.5058 </r>
       <r>   -16.5914     3.5940     1.7749 </r>
       <r>   -16.5165     1.9188     1.9186 </r>
       <r>   -16.4416     0.7788     1.9769 </r>
       <r>   -16.3668     0.2403     1.9949 </r>
       <r>   -16.2919     0.0564     1.9991 </r>
       <r>   -16.2170     0.0100     1.9999 </r>
       <r>   -16.1421     0.0014     2.0000 </r>
       <r>   -16.0672     0.0001     2.0000 </r>
       <r>   -15.9923     0.0000     2.0000 </r>
       <r>   -15.9175     0.0000     2.0000 </r>
       <r>   -15.8426     0.0000     2.0000 </r>
       <r>   -15.7677     0.0000     2.0000 </r>
       <r>   -15.6928     0.0000     2.0000 </r>
       <r>   -15.6179     0.0000     2.0000 </r>
       <r>   -15.5431     0.0000     2.0000 </r>
       <r>   -15.4682     0.0000     2.0000 </r>
       <r>   -15.3933     0.0000     2.0000 </r>
       <r>   -15.3184     0.0000     2.0000 </r>
       <r>   -15.2435     0.0000     2.0000 </r>
       <r>   -15.1686     0.0000     2.0000 </r>
       <r>   -15.0938     0.0000     2.0000 </r>
       <r>   -15.0189     0.0000     2.0000 </r>
       <r>   -14.9440     0.0000     2.0000 </r>
       <r>   -14.8691     0.0000     2.0000 </r>
       <r>   -14.7942     0.0000     2.0000 </r>
       <r>   -14.7194     0.0000     2.0000 </r>
       <r>   -14.6445     0.0000     2.0000 </r>
       <r>   -14.5696     0.0000     2.0000 </r>
       <r>   -14.4947     0.0000     2.0000 </r>
       <r>   -14.4198     0.0000     2.0000 </r>
       <r>   -14.3450     0.0000     2.0000 </r>
       <r>   -14.2701     0.0000     2.0000 </r>
       <r>   -14.1952     0.0000     2.0000 </r>
       <r>   -14.1203     0.0000     2.0000 </r>
       <r>   -14.0454     0.0000     2.0000 </r>
       <r>   -13.9705     0.0000     2.0000 </r>
       <r>   -13.8957     0.0000     2.0000 </r>
       <r>   -13.8208     0.0000     2.0000 </r>
       <r>   -13.7459     0.0000     2.0000 </r>
       <r>   -13.6710     0.0000     2.0000 </r>
       <r>   -13.5961     0.0000     2.0000 </r>
       <r>   -13.5213     0.0000     2.0000 </r>
       <r>   -13.4464     0.0000     2.0000 </r>
       <r>   -13.3715     0.0000     2.0000 </r>
       <r>   -13.2966     0.0000     2.0000 </r>
       <r>   -13.2217     0.0000     2.0000 </r>
       <r>   -13.1468     0.0000     2.0000 </r>
       <r>   -13.0720     0.0000     2.0000 </r>
       <r>   -12.9971     0.0000     2.0000 </r>
       <r>   -12.9222     0.0000     2.0000 </r>
       <r>   -12.8473     0.0000     2.0000 </r>
       <r>   -12.7724     0.0000     2.0000 </r>
       <r>   -12.6976     0.0000     2.0000 </r>
       <r>   -12.6227     0.0000     2.0000 </r>
       <r>   -12.5478     0.0000     2.0000 </r>
       <r>   -12.4729     0.0000     2.0000 </r>
       <r>   -12.3980     0.0000     2.0000 </r>
       <r>   -12.3232     0.0000     2.0000 </r>
       <r>   -12.2483     0.0000     2.0000 </r>
       <r>   -12.1734     0.0000     2.0000 </r>
       <r>   -12.0985     0.0000     2.0000 </r>
       <r>   -12.0236     0.0000     2.0000 </r>
       <r>   -11.9487     0.0000     2.0000 </r>
       <r>   -11.8739     0.0000     2.0000 </r>
       <r>   -11.7990     0.0000     2.0000 </r>
       <r>   -11.7241     0.0000     2.0000 </r>
       <r>   -11.6492     0.0000     2.0000 </r>
       <r>   -11.5743     0.0000     2.0000 </r>
       <r>   -11.4995     0.0000     2.0000 </r>
       <r>   -11.4246     0.0000     2.0000 </r>
       <r>   -11.3497     0.0000     2.0000 </r>
       <r>   -11.2748     0.0000     2.0000 </r>
       <r>   -11.1999     0.0000     2.0000 </r>
       <r>   -11.1250     0.0000     2.0000 </r>
       <r>   -11.0502     0.0000     2.0000 </r>
       <r>   -10.9753     0.0000     2.0000 </r>
       <r>   -10.9004     0.0000     2.0000 </r>
       <r>   -10.8255     0.0000     2.0000 </r>
       <r>   -10.7506     0.0000     2.0000 </r>
       <r>   -10.6758     0.0000     2.0000 </r>
       <r>   -10.6009     0.0000     2.0000 </r>
       <r>   -10.5260     0.0000     2.0000 </r>
       <r>   -10.4511     0.0000     2.0000 </r>
       <r>   -10.3762     0.0000     2.0000 </r>
       <r>   -10.3014     0.0000     2.0000 </r>
       <r>   -10.2265     0.0000     2.0000 </r>
       <r>   -10.1516     0.0000     2.0000 </r>
       <r>   -10.0767     0.0000     2.0000 </r>
       <r>   -10.0018     0.0000     2.0000 </r>
       <r>    -9.9269     0.0000     2.0000 </r>
       <r>    -9.8521     0.0000     2.0000 </r>
       <r>    -9.7772     0.0001     2.0000 </r>
       <r>    -9.7023     0.0016     2.0001 </r>
       <r>    -9.6274     0.0129     2.0011 </r>
       <r>    -9.5525     0.0819     2.0072 </r>
       <r>    -9.4777     0.3942     2.0367 </r>
       <r>    -9.4028     1.4412     2.1447 </r>
       <r>    -9.3279     4.0054     2.4446 </r>
       <r>    -9.2530     8.4631     3.0783 </r>
       <r>    -9.1781    13.5959     4.0964 </r>
       <r>    -9.1032    16.6085     5.3401 </r>
       <r>    -9.0284    15.4279     6.4953 </r>
       <r>    -8.9535    10.8977     7.3114 </r>
       <r>    -8.8786     5.8531     7.7497 </r>
       <r>    -8.8037     2.3901     7.9286 </r>
       <r>    -8.7288     0.7419     7.9842 </r>
       <r>    -8.6540     0.1750     7.9973 </r>
       <r>    -8.5791     0.0314     7.9996 </r>
       <r>    -8.5042     0.0043     8.0000 </r>
       <r>    -8.4293     0.0004     8.0000 </r>
       <r>    -8.3544     0.0000     8.0000 </r>
       <r>    -8.2796     0.0000     8.0000 </r>
       <r>    -8.2047     0.0000     8.0000 </r>
       <r>    -8.1298     0.0000     8.0000 </r>
       <r>    -8.0549     0.0000     8.0000 </r>
       <r>    -7.9800     0.0000     8.0000 </r>
       <r>    -7.9051     0.0000     8.0000 </r>
       <r>    -7.8303     0.0000     8.0000 </r>
       <r>    -7.7554     0.0000     8.0000 </r>
       <r>    -7.6805     0.0000     8.0000 </r>
       <r>    -7.6056     0.0000     8.0000 </r>
       <r>    -7.5307     0.0000     8.0000 </r>
       <r>    -7.4559     0.0000     8.0000 </r>
       <r>    -7.3810     0.0000     8.0000 </r>
       <r>    -7.3061     0.0000     8.0000 </r>
       <r>    -7.2312     0.0000     8.0000 </r>
       <r>    -7.1563     0.0000     8.0000 </r>
       <r>    -7.0814     0.0000     8.0000 </r>
       <r>    -7.0066     0.0000     8.0000 </r>
       <r>    -6.9317     0.0000     8.0000 </r>
       <r>    -6.8568     0.0000     8.0000 </r>
       <r>    -6.7819     0.0000     8.0000 </r>
       <r>    -6.7070     0.0000     8.0000 </r>
       <r>    -6.6322     0.0000     8.0000 </r>
       <r>    -6.5573     0.0000     8.0000 </r>
       <r>    -6.4824     0.0000     8.0000 </r>
       <r>    -6.4075     0.0000     8.0000 </r>
       <r>    -6.3326     0.0000     8.0000 </r>
       <r>    -6.2578     0.0000     8.0000 </r>
       <r>    -6.1829     0.0000     8.0000 </r>
       <r>    -6.1080     0.0000     8.0000 </r>
       <r>    -6.0331     0.0000     8.0000 </r>
       <r>    -5.9582     0.0000     8.0000 </r>
       <r>    -5.8833     0.0000     8.0000 </r>
       <r>    -5.8085     0.0000     8.0000 </r>
       <r>    -5.7336     0.0000     8.0000 </r>
       <r>    -5.6587     0.0000     8.0000 </r>
       <r>    -5.5838     0.0000     8.0000 </r>
       <r>    -5.5089     0.0000     8.0000 </r>
       <r>    -5.4341     0.0000     8.0000 </r>
       <r>    -5.3592     0.0000     8.0000 </r>
       <r>    -5.2843     0.0000     8.0000 </r>
       <r>    -5.2094     0.0000     8.0000 </r>
       <r>    -5.1345     0.0000     8.0000 </r>
       <r>    -5.0596     0.0000     8.0000 </r>
       <r>    -4.9848     0.0000     8.0000 </r>
       <r>    -4.9099     0.0000     8.0000 </r>
       <r>    -4.8350     0.0000     8.0000 </r>
       <r>    -4.7601     0.0000     8.0000 </r>
       <r>    -4.6852     0.0000     8.0000 </r>
       <r>    -4.6104     0.0000     8.0000 </r>
       <r>    -4.5355     0.0000     8.0000 </r>
       <r>    -4.4606     0.0000     8.0000 </r>
       <r>    -4.3857     0.0000     8.0000 </r>
       <r>    -4.3108     0.0000     8.0000 </r>
       <r>    -4.2360     0.0000     8.0000 </r>
       <r>    -4.1611     0.0000     8.0000 </r>
       <r>    -4.0862     0.0000     8.0000 </r>
       <r>    -4.0113     0.0000     8.0000 </r>
       <r>    -3.9364     0.0000     8.0000 </r>
       <r>    -3.8615     0.0000     8.0000 </r>
       <r>    -3.7867     0.0000     8.0000 </r>
       <r>    -3.7118     0.0000     8.0000 </r>
       <r>    -3.6369     0.0000     8.0000 </r>
       <r>    -3.5620     0.0000     8.0000 </r>
       <r>    -3.4871     0.0000     8.0000 </r>
       <r>    -3.4123     0.0000     8.0000 </r>
       <r>    -3.3374     0.0000     8.0000 </r>
       <r>    -3.2625     0.0000     8.0000 </r>
       <r>    -3.1876     0.0000     8.0000 </r>
       <r>    -3.1127     0.0000     8.0000 </r>
       <r>    -3.0378     0.0000     8.0000 </r>
       <r>    -2.9630     0.0000     8.0000 </r>
       <r>    -2.8881     0.0000     8.0000 </r>
       <r>    -2.8132     0.0000     8.0000 </r>
       <r>    -2.7383     0.0000     8.0000 </r>
       <r>    -2.6634     0.0000     8.0000 </r>
       <r>    -2.5886     0.0000     8.0000 </r>
       <r>    -2.5137     0.0000     8.0000 </r>
       <r>    -2.4388     0.0000     8.0000 </r>
       <r>    -2.3639     0.0000     8.0000 </r>
       <r>    -2.2890     0.0000     8.0000 </r>
       <r>    -2.2142     0.0000     8.0000 </r>
       <r>    -2.1393     0.0000     8.0000 </r>
       <r>    -2.0644     0.0000     8.0000 </r>
       <r>    -1.9895     0.0000     8.0000 </r>
       <r>    -1.9146     0.0000     8.0000 </r>
       <r>    -1.8397     0.0000     8.0000 </r>
       <r>    -1.7649     0.0000     8.0000 </r>
       <r>    -1.6900     0.0000     8.0000 </r>
       <r>    -1.6151     0.0000     8.0000 </r>
       <r>    -1.5402     0.0000     8.0000 </r>
       <r>    -1.4653     0.0000     8.0000 </r>
       <r>    -1.3905     0.0000     8.0000 </r>
       <r>    -1.3156     0.0001     8.0000 </r>
       <r>    -1.2407     0.0006     8.0000 </r>
       <r>    -1.1658     0.0049     8.0004 </r>
       <r>    -1.0909     0.0303     8.0027 </r>
       <r>    -1.0160     0.1434     8.0134 </r>
       <r>    -0.9412     0.5155     8.0520 </r>
       <r>    -0.8663     1.4089     8.1575 </r>
       <r>    -0.7914     2.9272     8.3767 </r>
       <r>    -0.7165     4.6242     8.7230 </r>
       <r>    -0.6416     5.5548     9.1389 </r>
       <r>    -0.5668     5.0740     9.5189 </r>
       <r>    -0.4919     3.5244     9.7828 </r>
       <r>    -0.4170     1.8614     9.9222 </r>
       <r>    -0.3421     0.7474     9.9782 </r>
       <r>    -0.2672     0.2281     9.9952 </r>
       <r>    -0.1924     0.0529     9.9992 </r>
       <r>    -0.1175     0.0093     9.9999 </r>
       <r>    -0.0426     0.0012    10.0000 </r>
       <r>     0.0323     0.0001    10.0000 </r>
       <r>     0.1072     0.0000    10.0000 </r>
       <r>     0.1821     0.0000    10.0000 </r>
       <r>     0.2569     0.0000    10.0000 </r>
       <r>     0.3318     0.0000    10.0000 </r>
       <r>     0.4067     0.0000    10.0000 </r>
       <r>     0.4816     0.0000    10.0000 </r>
       <r>     0.5565     0.0000    10.0000 </r>
       <r>     0.6313     0.0000    10.0000 </r>
       <r>     0.7062     0.0000    10.0000 </r>
       <r>     0.7811     0.0000    10.0000 </r>
       <r>     0.8560     0.0000    10.0000 </r>
       <r>     0.9309     0.0000    10.0000 </r>
       <r>     1.0058     0.0000    10.0000 </r>
       <r>     1.0806     0.0004    10.0000 </r>
       <r>     1.1555     0.0041    10.0003 </r>
       <r>     1.2304     0.0301    10.0026 </r>
       <r>     1.3053     0.1691    10.0153 </r>
       <r>     1.3802     0.7209    10.0692 </r>
       <r>     1.4550     2.3365    10.2442 </r>
       <r>     1.5299     5.7564    10.6752 </r>
       <r>     1.6048    10.7821    11.4826 </r>
       <r>     1.6797    15.3559    12.6325 </r>
       <r>     1.7546    16.6304    13.8778 </r>
       <r>     1.8294    13.6957    14.9034 </r>
       <r>     1.9043     8.5764    15.5456 </r>
       <r>     1.9792     4.0835    15.8514 </r>
       <r>     2.0541     1.4781    15.9620 </r>
       <r>     2.1290     0.4067    15.9925 </r>
       <r>     2.2039     0.0850    15.9989 </r>
       <r>     2.2787     0.0135    15.9999 </r>
       <r>     2.3536     0.0016    16.0000 </r>
       <r>     2.4285     0.0001    16.0000 </r>
       <r>     2.5034     0.0000    16.0000 </r>
       <r>     2.5783     0.0000    16.0000 </r>
       <r>     2.6531     0.0000    16.0000 </r>
       <r>     2.7280     0.0000    16.0000 </r>
       <r>     2.8029     0.0000    16.0000 </r>
       <r>     2.8778     0.0000    16.0000 </r>
       <r>     2.9527     0.0000    16.0000 </r>
       <r>     3.0276     0.0000    16.0000 </r>
       <r>     3.1024     0.0000    16.0000 </r>
       <r>     3.1773     0.0000    16.0000 </r>
       <r>     3.2522     0.0000    16.0000 </r>
       <r>     3.3271     0.0000    16.0000 </r>
       <r>     3.4020     0.0000    16.0000 </r>
       <r>     3.4768     0.0000    16.0000 </r>
       <r>     3.5517     0.0000    16.0000 </r>
       <r>     3.6266     0.0000    16.0000 </r>
       <r>     3.7015     0.0000    16.0000 </r>
      </set>
     </set>
    </array>
   </total>
  </dos>
 </calculation>
 <structure name="finalpos" >
  <crystal>
   <varray name="basis" >
    <v>       8.00000000       0.00000000       0.00000000 </v>
    <v>       0.00000000       8.00000000       0.00000000 </v>
    <v>       0.00000000       0.00000000       8.00000000 </v>
   </varray>
   <i name="volume">    512.00000000 </i>
   <varray name="rec_basis" >
    <v>       0.12500000       0.00000000       0.00000000 </v>
    <v>       0.00000000       0.12500000       0.00000000 </v>
    <v>       0.00000000       0.00000000       0.12500000 </v>
   </varray>
  </crystal>
  <varray name="positions" >
   <v>       0.07956247       0.07956247       0.07956247 </v>
   <v>       0.92043753       0.92043753       0.07956247 </v>
   <v>       0.07956247       0.92043753       0.92043753 </v>
   <v>       0.92043753       0.07956247       0.92043753 </v>
   <v>       0.00000000       0.00000000       0.00000000 </v>
  </varray>
 </structure>
</modeling>
