 running on    1 nodes
 distr:  one band on    1 nodes,    1 groups
 vasp.5.2.12 11Nov11 complex                                                    
  
 POSCAR found :  2 types and       8 ions
 LDA part: xc-table for Pade appr. of Perdew
 POSCAR, INCAR and KPOINTS ok, starting setup
 WARNING: small aliasing (wrap around) errors must be expected
 FFT: planning ...(           1 )
 WAVECAR not read
 entering main loop
       N       E                     dE             d eps       ncg     rms          rms(c)
DAV:   1     0.617077508303E+02    0.61708E+02   -0.38254E+03    24   0.687E+02
DAV:   2    -0.297001394613E+02   -0.91408E+02   -0.90313E+02    44   0.151E+02
DAV:   3    -0.450548793613E+02   -0.15355E+02   -0.15331E+02    32   0.644E+01
DAV:   4    -0.459865811690E+02   -0.93170E+00   -0.93046E+00    28   0.168E+01
DAV:   5    -0.460221816079E+02   -0.35600E-01   -0.35591E-01    32   0.337E+00    0.105E+01
DAV:   6    -0.415976530365E+02    0.44245E+01   -0.83137E+00    24   0.170E+01    0.479E+00
DAV:   7    -0.407188675459E+02    0.87879E+00   -0.25324E+00    28   0.871E+00    0.239E+00
DAV:   8    -0.404937910598E+02    0.22508E+00   -0.45651E-01    28   0.449E+00    0.699E-01
DAV:   9    -0.404788333789E+02    0.14958E-01   -0.49440E-02    32   0.137E+00    0.333E-01
DAV:  10    -0.404880475827E+02   -0.92142E-02   -0.11976E-01    28   0.183E+00    0.430E-01
DAV:  11    -0.404822046445E+02    0.58429E-02   -0.23699E-02    28   0.859E-01    0.124E-01
DAV:  12    -0.404888123109E+02   -0.66077E-02   -0.37464E-03    24   0.444E-01    0.951E-02
DAV:  13    -0.404915119145E+02   -0.26996E-02   -0.16025E-03    24   0.214E-01    0.332E-02
DAV:  14    -0.404932153992E+02   -0.17035E-02   -0.29974E-04    28   0.963E-02    0.345E-02
DAV:  15    -0.404934843276E+02   -0.26893E-03   -0.15401E-04    24   0.796E-02    0.668E-03
DAV:  16    -0.404936428415E+02   -0.15851E-03   -0.21209E-05    28   0.276E-02    0.398E-03
DAV:  17    -0.404936618772E+02   -0.19036E-04   -0.28709E-06    24   0.906E-03
   1 F= -.40493662E+02 E0= -.40493662E+02  d E =-.404937E+02
 curvature:   0.00 expect dE= 0.000E+00 dE for cont linesearch  0.000E+00
 trial: gam= 0.00000 g(F)=  0.143E-01 g(S)=  0.000E+00 ort = 0.000E+00 (trialstep = 0.100E+01)
 search vector abs. value=  0.143E-01
 bond charge predicted
       N       E                     dE             d eps       ncg     rms          rms(c)
DAV:   1    -0.404952429229E+02   -0.16001E-02   -0.49509E-01    32   0.588E+00    0.306E-01
DAV:   2    -0.404932859101E+02    0.19570E-02   -0.86470E-03    24   0.655E-01    0.156E-01
DAV:   3    -0.404927939120E+02    0.49200E-03   -0.39072E-03    28   0.347E-01    0.472E-02
DAV:   4    -0.404927791645E+02    0.14747E-04   -0.39612E-04    28   0.111E-01
   2 F= -.40492779E+02 E0= -.40492779E+02  d E =0.882713E-03
 trial-energy change:    0.000883  1 .order    0.000542   -0.014306    0.015390
 step:   0.4817(harm=  0.4817)  dis= 0.00430  next Energy=   -40.497108 (dE=-0.345E-02)
 bond charge predicted
       N       E                     dE             d eps       ncg     rms          rms(c)
DAV:   1    -0.404975648999E+02   -0.47710E-02   -0.13580E-01    28   0.307E+00    0.157E-01
DAV:   2    -0.404971237117E+02    0.44119E-03   -0.24664E-03    24   0.344E-01    0.836E-02
DAV:   3    -0.404970100339E+02    0.11368E-03   -0.11908E-03    28   0.191E-01    0.258E-02
DAV:   4    -0.404969935435E+02    0.16490E-04   -0.12620E-04    24   0.621E-02
   3 F= -.40496994E+02 E0= -.40496994E+02  d E =-.333167E-02
 curvature:  -0.24 expect dE=-0.110E-02 dE for cont linesearch -0.342E-05
 trial: gam= 0.34999 g(F)=  0.456E-02 g(S)=  0.000E+00 ort =-0.451E-03 (trialstep = 0.896E+00)
 search vector abs. value=  0.599E-02
 bond charge predicted
       N       E                     dE             d eps       ncg     rms          rms(c)
DAV:   1    -0.404983844798E+02   -0.13744E-02   -0.33584E-01    24   0.461E+00    0.147E-01
DAV:   2    -0.404978311787E+02    0.55330E-03   -0.27026E-03    24   0.444E-01    0.832E-02
DAV:   3    -0.404977717316E+02    0.59447E-04   -0.26096E-03    24   0.303E-01    0.423E-02
DAV:   4    -0.404977082249E+02    0.63507E-04   -0.31463E-04    24   0.106E-01
   4 F= -.40497708E+02 E0= -.40497708E+02  d E =-.714681E-03
 trial-energy change:   -0.000715  1 .order   -0.000741   -0.003942    0.002461
 step:   0.5519(harm=  0.5519)  dis= 0.00449  next Energy=   -40.498207 (dE=-0.121E-02)
 bond charge predicted
       N       E                     dE             d eps       ncg     rms          rms(c)
DAV:   1    -0.404983128437E+02   -0.54111E-03   -0.50306E-02    24   0.178E+00    0.622E-02
DAV:   2    -0.404981946986E+02    0.11815E-03   -0.43440E-04    24   0.175E-01    0.333E-02
DAV:   3    -0.404981834454E+02    0.11253E-04   -0.41473E-04    28   0.122E-01
   5 F= -.40498183E+02 E0= -.40498183E+02  d E =-.118990E-02
 curvature:  -0.38 expect dE=-0.129E-03 dE for cont linesearch -0.708E-05
 trial: gam=-0.02337 g(F)=  0.343E-03 g(S)=  0.000E+00 ort = 0.336E-03 (trialstep = 0.827E+00)
 search vector abs. value=  0.331E-03
 reached required accuracy - stopping structural energy minimisation
 writing wavefunctions
NPROCS =  1
