   8   8   0   0
  0.6400000E+02  0.8000000E-09  0.8000000E-09  0.8000000E-09  0.5000000E-15
  1.000000000000000E-004
  CAR 
 unknown system                          
      3.51900585    -20.06876930  301     -6.70220981      1.00000000
    -20.069  0.0000E+00  0.0000E+00
    -19.990  0.0000E+00  0.0000E+00
    -19.912  0.0000E+00  0.0000E+00
    -19.833  0.0000E+00  0.0000E+00
    -19.754  0.0000E+00  0.0000E+00
    -19.676  0.0000E+00  0.0000E+00
    -19.597  0.0000E+00  0.0000E+00
    -19.518  0.0000E+00  0.0000E+00
    -19.440  0.0000E+00  0.0000E+00
    -19.361  0.0000E+00  0.0000E+00
    -19.283  0.0000E+00  0.0000E+00
    -19.204  0.1271E-14  0.9992E-16
    -19.125  0.1004E-12  0.7994E-14
    -19.047  0.5868E-11  0.4694E-12
    -18.968  0.2530E-09  0.2036E-10
    -18.889  0.8046E-08  0.6530E-09
    -18.811  0.1887E-06  0.1549E-07
    -18.732  0.3267E-05  0.2723E-06
    -18.654  0.4174E-04  0.3554E-05
    -18.575  0.3939E-03  0.3453E-04
    -18.496  0.2747E-02  0.2505E-03
    -18.418  0.1415E-01  0.1363E-02
    -18.339  0.5392E-01  0.5603E-02
    -18.260  0.1519E+00  0.1755E-01
    -18.182  0.3166E+00  0.4244E-01
    -18.103  0.4880E+00  0.8081E-01
    -18.024  0.5567E+00  0.1246E+00
    -17.946  0.4698E+00  0.1615E+00
    -17.867  0.2934E+00  0.1846E+00
    -17.789  0.1355E+00  0.1952E+00
    -17.710  0.4631E-01  0.1989E+00
    -17.631  0.1170E-01  0.1998E+00
    -17.553  0.2186E-02  0.2000E+00
    -17.474  0.3018E-03  0.2000E+00
    -17.395  0.3078E-04  0.2000E+00
    -17.317  0.2318E-05  0.2000E+00
    -17.238  0.1289E-06  0.2000E+00
    -17.160  0.5288E-08  0.2000E+00
    -17.081  0.1600E-09  0.2000E+00
    -17.002  0.3572E-11  0.2000E+00
    -16.924  0.5874E-13  0.2000E+00
    -16.845  0.5648E-15  0.2000E+00
    -16.766  0.0000E+00  0.2000E+00
    -16.688  0.0000E+00  0.2000E+00
    -16.609  0.0000E+00  0.2000E+00
    -16.531  0.0000E+00  0.2000E+00
    -16.452  0.0000E+00  0.2000E+00
    -16.373  0.0000E+00  0.2000E+00
    -16.295  0.0000E+00  0.2000E+00
    -16.216  0.0000E+00  0.2000E+00
    -16.137  0.0000E+00  0.2000E+00
    -16.059  0.0000E+00  0.2000E+00
    -15.980  0.0000E+00  0.2000E+00
    -15.902  0.0000E+00  0.2000E+00
    -15.823  0.0000E+00  0.2000E+00
    -15.744  0.0000E+00  0.2000E+00
    -15.666  0.1271E-14  0.2000E+00
    -15.587  0.1036E-12  0.2000E+00
    -15.508  0.6044E-11  0.2000E+00
    -15.430  0.2600E-09  0.2000E+00
    -15.351  0.8249E-08  0.2000E+00
    -15.273  0.1930E-06  0.2000E+00
    -15.194  0.3334E-05  0.2000E+00
    -15.115  0.4250E-04  0.2000E+00
    -15.037  0.4002E-03  0.2000E+00
    -14.958  0.2784E-02  0.2003E+00
    -14.879  0.1431E-01  0.2014E+00
    -14.801  0.5440E-01  0.2057E+00
    -14.722  0.1529E+00  0.2177E+00
    -14.644  0.3180E+00  0.2427E+00
    -14.565  0.4891E+00  0.2811E+00
    -14.486  0.5566E+00  0.3249E+00
    -14.408  0.4687E+00  0.3617E+00
    -14.329  0.2920E+00  0.3847E+00
    -14.250  0.1346E+00  0.3953E+00
    -14.172  0.4588E-01  0.3989E+00
    -14.093  0.1157E-01  0.3998E+00
    -14.015  0.2156E-02  0.4000E+00
    -13.936  0.2969E-03  0.4000E+00
    -13.857  0.3022E-04  0.4000E+00
    -13.779  0.2271E-05  0.4000E+00
    -13.700  0.1260E-06  0.4000E+00
    -13.621  0.5156E-08  0.4000E+00
    -13.543  0.1557E-09  0.4000E+00
    -13.464  0.3466E-11  0.4000E+00
    -13.386  0.5705E-13  0.4000E+00
    -13.307  0.5648E-15  0.4000E+00
    -13.228  0.0000E+00  0.4000E+00
    -13.150  0.0000E+00  0.4000E+00
    -13.071  0.0000E+00  0.4000E+00
    -12.992  0.0000E+00  0.4000E+00
    -12.914  0.0000E+00  0.4000E+00
    -12.835  0.0000E+00  0.4000E+00
    -12.757  0.0000E+00  0.4000E+00
    -12.678  0.0000E+00  0.4000E+00
    -12.599  0.0000E+00  0.4000E+00
    -12.521  0.0000E+00  0.4000E+00
    -12.442  0.0000E+00  0.4000E+00
    -12.363  0.0000E+00  0.4000E+00
    -12.285  0.0000E+00  0.4000E+00
    -12.206  0.0000E+00  0.4000E+00
    -12.128  0.0000E+00  0.4000E+00
    -12.049  0.0000E+00  0.4000E+00
    -11.970  0.0000E+00  0.4000E+00
    -11.892  0.0000E+00  0.4000E+00
    -11.813  0.0000E+00  0.4000E+00
    -11.734  0.0000E+00  0.4000E+00
    -11.656  0.0000E+00  0.4000E+00
    -11.577  0.0000E+00  0.4000E+00
    -11.499  0.0000E+00  0.4000E+00
    -11.420  0.0000E+00  0.4000E+00
    -11.341  0.0000E+00  0.4000E+00
    -11.263  0.0000E+00  0.4000E+00
    -11.184  0.2824E-14  0.4000E+00
    -11.105  0.2129E-12  0.4000E+00
    -11.027  0.1241E-10  0.4000E+00
    -10.948  0.5328E-09  0.4000E+00
    -10.870  0.1687E-07  0.4000E+00
    -10.791  0.3939E-06  0.4000E+00
    -10.712  0.6789E-05  0.4000E+00
    -10.634  0.8638E-04  0.4000E+00
    -10.555  0.8117E-03  0.4001E+00
    -10.476  0.5635E-02  0.4005E+00
    -10.398  0.2891E-01  0.4028E+00
    -10.319  0.1097E+00  0.4114E+00
    -10.241  0.3077E+00  0.4356E+00
    -10.162  0.6384E+00  0.4858E+00
    -10.083  0.9800E+00  0.5628E+00
    -10.005  0.1113E+01  0.6504E+00
     -9.926  0.9353E+00  0.7239E+00
     -9.847  0.5816E+00  0.7696E+00
     -9.769  0.2675E+00  0.7907E+00
     -9.690  0.9102E-01  0.7978E+00
     -9.612  0.2290E-01  0.7996E+00
     -9.533  0.4259E-02  0.7999E+00
     -9.454  0.5855E-03  0.8000E+00
     -9.376  0.5945E-04  0.8000E+00
     -9.297  0.4459E-05  0.8000E+00
     -9.218  0.2598E-06  0.8000E+00
     -9.140  0.3007E-06  0.8000E+00
     -9.061  0.4814E-05  0.8000E+00
     -8.983  0.5887E-04  0.8000E+00
     -8.904  0.5318E-03  0.8000E+00
     -8.825  0.3549E-02  0.8003E+00
     -8.747  0.1750E-01  0.8017E+00
     -8.668  0.6383E-01  0.8067E+00
     -8.589  0.1721E+00  0.8203E+00
     -8.511  0.3434E+00  0.8473E+00
     -8.432  0.5068E+00  0.8871E+00
     -8.354  0.5534E+00  0.9306E+00
     -8.275  0.4472E+00  0.9658E+00
     -8.196  0.2677E+00  0.9868E+00
     -8.118  0.1212E+00  0.9963E+00
     -8.039  0.5595E-01  0.1001E+01
     -7.960  0.8192E-01  0.1007E+01
     -7.882  0.2269E+00  0.1025E+01
     -7.803  0.5172E+00  0.1066E+01
     -7.725  0.8779E+00  0.1135E+01
     -7.646  0.1103E+01  0.1221E+01
     -7.567  0.1025E+01  0.1302E+01
     -7.489  0.7052E+00  0.1357E+01
     -7.410  0.3588E+00  0.1386E+01
     -7.331  0.1351E+00  0.1396E+01
     -7.253  0.3760E-01  0.1399E+01
     -7.174  0.7738E-02  0.1400E+01
     -7.095  0.1177E-02  0.1400E+01
     -7.017  0.1323E-03  0.1400E+01
     -6.938  0.1098E-04  0.1400E+01
     -6.860  0.6731E-06  0.1400E+01
     -6.781  0.3044E-07  0.1400E+01
     -6.702  0.1016E-08  0.1400E+01
     -6.624  0.2500E-10  0.1400E+01
     -6.545  0.4535E-12  0.1400E+01
     -6.466  0.6213E-14  0.1400E+01
     -6.388  0.0000E+00  0.1400E+01
     -6.309  0.0000E+00  0.1400E+01
     -6.231  0.0000E+00  0.1400E+01
     -6.152  0.0000E+00  0.1400E+01
     -6.073  0.0000E+00  0.1400E+01
     -5.995  0.0000E+00  0.1400E+01
     -5.916  0.0000E+00  0.1400E+01
     -5.837  0.0000E+00  0.1400E+01
     -5.759  0.0000E+00  0.1400E+01
     -5.680  0.0000E+00  0.1400E+01
     -5.602  0.0000E+00  0.1400E+01
     -5.523  0.0000E+00  0.1400E+01
     -5.444  0.0000E+00  0.1400E+01
     -5.366  0.0000E+00  0.1400E+01
     -5.287  0.0000E+00  0.1400E+01
     -5.208  0.0000E+00  0.1400E+01
     -5.130  0.0000E+00  0.1400E+01
     -5.051  0.0000E+00  0.1400E+01
     -4.973  0.0000E+00  0.1400E+01
     -4.894  0.0000E+00  0.1400E+01
     -4.815  0.0000E+00  0.1400E+01
     -4.737  0.0000E+00  0.1400E+01
     -4.658  0.0000E+00  0.1400E+01
     -4.579  0.0000E+00  0.1400E+01
     -4.501  0.0000E+00  0.1400E+01
     -4.422  0.0000E+00  0.1400E+01
     -4.344  0.0000E+00  0.1400E+01
     -4.265  0.0000E+00  0.1400E+01
     -4.186  0.0000E+00  0.1400E+01
     -4.108  0.0000E+00  0.1400E+01
     -4.029  0.0000E+00  0.1400E+01
     -3.950  0.0000E+00  0.1400E+01
     -3.872  0.0000E+00  0.1400E+01
     -3.793  0.0000E+00  0.1400E+01
     -3.715  0.0000E+00  0.1400E+01
     -3.636  0.0000E+00  0.1400E+01
     -3.557  0.0000E+00  0.1400E+01
     -3.479  0.0000E+00  0.1400E+01
     -3.400  0.0000E+00  0.1400E+01
     -3.321  0.0000E+00  0.1400E+01
     -3.243  0.0000E+00  0.1400E+01
     -3.164  0.0000E+00  0.1400E+01
     -3.086  0.0000E+00  0.1400E+01
     -3.007  0.0000E+00  0.1400E+01
     -2.928  0.0000E+00  0.1400E+01
     -2.850  0.0000E+00  0.1400E+01
     -2.771  0.0000E+00  0.1400E+01
     -2.692  0.0000E+00  0.1400E+01
     -2.614  0.0000E+00  0.1400E+01
     -2.535  0.0000E+00  0.1400E+01
     -2.457  0.0000E+00  0.1400E+01
     -2.378  0.0000E+00  0.1400E+01
     -2.299  0.0000E+00  0.1400E+01
     -2.221  0.0000E+00  0.1400E+01
     -2.142  0.0000E+00  0.1400E+01
     -2.063  0.0000E+00  0.1400E+01
     -1.985  0.0000E+00  0.1400E+01
     -1.906  0.0000E+00  0.1400E+01
     -1.828  0.0000E+00  0.1400E+01
     -1.749  0.1412E-15  0.1400E+01
     -1.670  0.1398E-13  0.1400E+01
     -1.592  0.9377E-12  0.1400E+01
     -1.513  0.4652E-10  0.1400E+01
     -1.434  0.1702E-08  0.1400E+01
     -1.356  0.4591E-07  0.1400E+01
     -1.277  0.9138E-06  0.1400E+01
     -1.199  0.1343E-04  0.1400E+01
     -1.120  0.1457E-03  0.1400E+01
     -1.041  0.1167E-02  0.1400E+01
     -0.963  0.6912E-02  0.1401E+01
     -0.884  0.3026E-01  0.1403E+01
     -0.805  0.9793E-01  0.1411E+01
     -0.727  0.2344E+00  0.1429E+01
     -0.648  0.4152E+00  0.1462E+01
     -0.570  0.5439E+00  0.1505E+01
     -0.491  0.5273E+00  0.1546E+01
     -0.412  0.3782E+00  0.1576E+01
     -0.334  0.2007E+00  0.1592E+01
     -0.255  0.7879E-01  0.1598E+01
     -0.176  0.2287E-01  0.1600E+01
     -0.098  0.4910E-02  0.1600E+01
     -0.019  0.7791E-03  0.1600E+01
      0.059  0.9133E-04  0.1600E+01
      0.138  0.7909E-05  0.1600E+01
      0.217  0.5056E-06  0.1600E+01
      0.295  0.2386E-07  0.1600E+01
      0.374  0.8354E-09  0.1600E+01
      0.453  0.2425E-09  0.1600E+01
      0.531  0.7567E-08  0.1600E+01
      0.610  0.1915E-06  0.1600E+01
      0.688  0.3592E-05  0.1600E+01
      0.767  0.4994E-04  0.1600E+01
      0.846  0.5156E-03  0.1600E+01
      0.924  0.3958E-02  0.1600E+01
      1.003  0.2264E-01  0.1602E+01
      1.082  0.9669E-01  0.1610E+01
      1.160  0.3095E+00  0.1634E+01
      1.239  0.7457E+00  0.1693E+01
      1.317  0.1361E+01  0.1800E+01
      1.396  0.1896E+01  0.1949E+01
      1.475  0.2036E+01  0.2109E+01
      1.553  0.1700E+01  0.2242E+01
      1.632  0.1111E+01  0.2330E+01
      1.711  0.5706E+00  0.2375E+01
      1.789  0.2293E+00  0.2393E+01
      1.868  0.7151E-01  0.2398E+01
      1.946  0.1714E-01  0.2400E+01
      2.025  0.3124E-02  0.2400E+01
      2.104  0.4294E-03  0.2400E+01
      2.182  0.4423E-04  0.2400E+01
      2.261  0.3396E-05  0.2400E+01
      2.340  0.1937E-06  0.2400E+01
      2.418  0.8189E-08  0.2400E+01
      2.497  0.2561E-09  0.2400E+01
      2.575  0.5916E-11  0.2400E+01
      2.654  0.1011E-12  0.2400E+01
      2.733  0.1130E-14  0.2400E+01
      2.811  0.0000E+00  0.2400E+01
      2.890  0.0000E+00  0.2400E+01
      2.969  0.0000E+00  0.2400E+01
      3.047  0.0000E+00  0.2400E+01
      3.126  0.0000E+00  0.2400E+01
      3.205  0.0000E+00  0.2400E+01
      3.283  0.0000E+00  0.2400E+01
      3.362  0.0000E+00  0.2400E+01
      3.440  0.0000E+00  0.2400E+01
      3.519  0.0000E+00  0.2400E+01
