    8    8   10    1
  0.6400000E+02  0.8000000E-09  0.8000000E-09  0.8000000E-09  0.5000000E-15
  1.000000000000000E-004
  CAR 
 unknown system                          
   14    1   12
 
  0.0000000E+00  0.0000000E+00  0.0000000E+00  0.1000000E+01
   1      -18.068769
   2      -14.531196
   3      -10.050118
   4      -10.049972
   5       -8.409170
   6       -7.664933
   7       -7.664930
   8       -0.577647
   9        1.362550
  10        1.383013
  11        1.424335
  12        1.519006
