   4   4   0   0
  0.1280000E+03  0.8000000E-09  0.8000000E-09  0.8000000E-09  0.5000000E-15
  1.000000000000000E-004
  CAR 
 unknown system                          
      3.06261717    -20.27835096  301     -5.88460199      1.00000000
    -20.278  0.0000E+00  0.0000E+00
    -20.201  0.0000E+00  0.0000E+00
    -20.123  0.0000E+00  0.0000E+00
    -20.045  0.0000E+00  0.0000E+00
    -19.967  0.0000E+00  0.0000E+00
    -19.889  0.0000E+00  0.0000E+00
    -19.812  0.0000E+00  0.0000E+00
    -19.734  0.0000E+00  0.0000E+00
    -19.656  0.0000E+00  0.0000E+00
    -19.578  0.0000E+00  0.0000E+00
    -19.500  0.0000E+00  0.0000E+00
    -19.423  0.7135E-15  0.5551E-16
    -19.345  0.5950E-13  0.4685E-14
    -19.267  0.3469E-11  0.2746E-12
    -19.189  0.1500E-09  0.1195E-10
    -19.111  0.4814E-08  0.3865E-09
    -19.033  0.1147E-06  0.9310E-08
    -18.956  0.2029E-05  0.1672E-06
    -18.878  0.2666E-04  0.2241E-05
    -18.800  0.2603E-03  0.2249E-04
    -18.722  0.1889E-02  0.1695E-03
    -18.644  0.1020E-01  0.9627E-03
    -18.567  0.4093E-01  0.4147E-02
    -18.489  0.1222E+00  0.1366E-01
    -18.411  0.2717E+00  0.3480E-01
    -18.333  0.4496E+00  0.6978E-01
    -18.255  0.5537E+00  0.1129E+00
    -18.178  0.5076E+00  0.1524E+00
    -18.100  0.3465E+00  0.1793E+00
    -18.022  0.1760E+00  0.1930E+00
    -17.944  0.6656E-01  0.1982E+00
    -17.866  0.1873E-01  0.1996E+00
    -17.789  0.3920E-02  0.1999E+00
    -17.711  0.6102E-03  0.2000E+00
    -17.633  0.7062E-04  0.2000E+00
    -17.555  0.6073E-05  0.2000E+00
    -17.477  0.3881E-06  0.2000E+00
    -17.400  0.1842E-07  0.2000E+00
    -17.322  0.6488E-09  0.2000E+00
    -17.244  0.1696E-10  0.2000E+00
    -17.166  0.3291E-12  0.2000E+00
    -17.088  0.4852E-14  0.2000E+00
    -17.011  0.0000E+00  0.2000E+00
    -16.933  0.0000E+00  0.2000E+00
    -16.855  0.0000E+00  0.2000E+00
    -16.777  0.0000E+00  0.2000E+00
    -16.699  0.0000E+00  0.2000E+00
    -16.622  0.0000E+00  0.2000E+00
    -16.544  0.0000E+00  0.2000E+00
    -16.466  0.0000E+00  0.2000E+00
    -16.388  0.0000E+00  0.2000E+00
    -16.310  0.0000E+00  0.2000E+00
    -16.233  0.0000E+00  0.2000E+00
    -16.155  0.0000E+00  0.2000E+00
    -16.077  0.0000E+00  0.2000E+00
    -15.999  0.0000E+00  0.2000E+00
    -15.921  0.0000E+00  0.2000E+00
    -15.844  0.0000E+00  0.2000E+00
    -15.766  0.0000E+00  0.2000E+00
    -15.688  0.0000E+00  0.2000E+00
    -15.610  0.0000E+00  0.2000E+00
    -15.532  0.0000E+00  0.2000E+00
    -15.455  0.0000E+00  0.2000E+00
    -15.377  0.0000E+00  0.2000E+00
    -15.299  0.0000E+00  0.2000E+00
    -15.221  0.0000E+00  0.2000E+00
    -15.143  0.0000E+00  0.2000E+00
    -15.066  0.0000E+00  0.2000E+00
    -14.988  0.0000E+00  0.2000E+00
    -14.910  0.0000E+00  0.2000E+00
    -14.832  0.2140E-14  0.2000E+00
    -14.754  0.1547E-12  0.2000E+00
    -14.677  0.8424E-11  0.2000E+00
    -14.599  0.3403E-09  0.2000E+00
    -14.521  0.1020E-07  0.2000E+00
    -14.443  0.2270E-06  0.2000E+00
    -14.365  0.3752E-05  0.2000E+00
    -14.288  0.4606E-04  0.2000E+00
    -14.210  0.4203E-03  0.2000E+00
    -14.132  0.2851E-02  0.2003E+00
    -14.054  0.1438E-01  0.2014E+00
    -13.976  0.5395E-01  0.2056E+00
    -13.898  0.1506E+00  0.2173E+00
    -13.821  0.3129E+00  0.2416E+00
    -13.743  0.4839E+00  0.2793E+00
    -13.665  0.5571E+00  0.3226E+00
    -13.587  0.4775E+00  0.3598E+00
    -13.509  0.3046E+00  0.3835E+00
    -13.432  0.1447E+00  0.3947E+00
    -13.354  0.5113E-01  0.3987E+00
    -13.276  0.1345E-01  0.3998E+00
    -13.198  0.2630E-02  0.4000E+00
    -13.120  0.3826E-03  0.4000E+00
    -13.043  0.4138E-04  0.4000E+00
    -12.965  0.3325E-05  0.4000E+00
    -12.887  0.1985E-06  0.4000E+00
    -12.809  0.8806E-08  0.4000E+00
    -12.731  0.5232E-09  0.4000E+00
    -12.654  0.7233E-08  0.4000E+00
    -12.576  0.1659E-06  0.4000E+00
    -12.498  0.2830E-05  0.4000E+00
    -12.420  0.3585E-04  0.4000E+00
    -12.342  0.3375E-03  0.4000E+00
    -12.265  0.2362E-02  0.4002E+00
    -12.187  0.1229E-01  0.4012E+00
    -12.109  0.4758E-01  0.4049E+00
    -12.031  0.1370E+00  0.4155E+00
    -11.953  0.2937E+00  0.4384E+00
    -11.876  0.4686E+00  0.4748E+00
    -11.798  0.5566E+00  0.5182E+00
    -11.720  0.4921E+00  0.5564E+00
    -11.642  0.3239E+00  0.5816E+00
    -11.564  0.1587E+00  0.5940E+00
    -11.487  0.5787E-01  0.5985E+00
    -11.409  0.1570E-01  0.5997E+00
    -11.331  0.3169E-02  0.6000E+00
    -11.253  0.4756E-03  0.6000E+00
    -11.175  0.5306E-04  0.6000E+00
    -11.098  0.4400E-05  0.6000E+00
    -11.020  0.2711E-06  0.6000E+00
    -10.942  0.1240E-07  0.6000E+00
    -10.864  0.4211E-09  0.6000E+00
    -10.786  0.1061E-10  0.6000E+00
    -10.709  0.1983E-12  0.6000E+00
    -10.631  0.2854E-14  0.6000E+00
    -10.553  0.0000E+00  0.6000E+00
    -10.475  0.0000E+00  0.6000E+00
    -10.397  0.0000E+00  0.6000E+00
    -10.320  0.0000E+00  0.6000E+00
    -10.242  0.0000E+00  0.6000E+00
    -10.164  0.0000E+00  0.6000E+00
    -10.086  0.0000E+00  0.6000E+00
    -10.008  0.0000E+00  0.6000E+00
     -9.931  0.0000E+00  0.6000E+00
     -9.853  0.0000E+00  0.6000E+00
     -9.775  0.0000E+00  0.6000E+00
     -9.697  0.0000E+00  0.6000E+00
     -9.619  0.0000E+00  0.6000E+00
     -9.542  0.0000E+00  0.6000E+00
     -9.464  0.0000E+00  0.6000E+00
     -9.386  0.0000E+00  0.6000E+00
     -9.308  0.0000E+00  0.6000E+00
     -9.230  0.0000E+00  0.6000E+00
     -9.152  0.0000E+00  0.6000E+00
     -9.075  0.0000E+00  0.6000E+00
     -8.997  0.0000E+00  0.6000E+00
     -8.919  0.0000E+00  0.6000E+00
     -8.841  0.0000E+00  0.6000E+00
     -8.763  0.0000E+00  0.6000E+00
     -8.686  0.0000E+00  0.6000E+00
     -8.608  0.0000E+00  0.6000E+00
     -8.530  0.0000E+00  0.6000E+00
     -8.452  0.0000E+00  0.6000E+00
     -8.374  0.0000E+00  0.6000E+00
     -8.297  0.0000E+00  0.6000E+00
     -8.219  0.0000E+00  0.6000E+00
     -8.141  0.0000E+00  0.6000E+00
     -8.063  0.0000E+00  0.6000E+00
     -7.985  0.4566E-14  0.6000E+00
     -7.908  0.3253E-12  0.6000E+00
     -7.830  0.1765E-10  0.6000E+00
     -7.752  0.7105E-09  0.6000E+00
     -7.674  0.2122E-07  0.6000E+00
     -7.596  0.4706E-06  0.6000E+00
     -7.519  0.7750E-05  0.6000E+00
     -7.441  0.9480E-04  0.6000E+00
     -7.363  0.8618E-03  0.6001E+00
     -7.285  0.5824E-02  0.6005E+00
     -7.207  0.2927E-01  0.6028E+00
     -7.130  0.1094E+00  0.6113E+00
     -7.052  0.3044E+00  0.6350E+00
     -6.974  0.6302E+00  0.6840E+00
     -6.896  0.9712E+00  0.7596E+00
     -6.818  0.1114E+01  0.8463E+00
     -6.741  0.9514E+00  0.9203E+00
     -6.663  0.6049E+00  0.9674E+00
     -6.585  0.2862E+00  0.9896E+00
     -6.507  0.1008E+00  0.9975E+00
     -6.429  0.2641E-01  0.9995E+00
     -6.352  0.5148E-02  0.9999E+00
     -6.274  0.7462E-03  0.1000E+01
     -6.196  0.8040E-04  0.1000E+01
     -6.118  0.6438E-05  0.1000E+01
     -6.040  0.3830E-06  0.1000E+01
     -5.963  0.1692E-07  0.1000E+01
     -5.885  0.5547E-09  0.1000E+01
     -5.807  0.1350E-10  0.1000E+01
     -5.729  0.2432E-12  0.1000E+01
     -5.651  0.3425E-14  0.1000E+01
     -5.574  0.0000E+00  0.1000E+01
     -5.496  0.0000E+00  0.1000E+01
     -5.418  0.0000E+00  0.1000E+01
     -5.340  0.0000E+00  0.1000E+01
     -5.262  0.0000E+00  0.1000E+01
     -5.185  0.0000E+00  0.1000E+01
     -5.107  0.0000E+00  0.1000E+01
     -5.029  0.0000E+00  0.1000E+01
     -4.951  0.0000E+00  0.1000E+01
     -4.873  0.0000E+00  0.1000E+01
     -4.796  0.0000E+00  0.1000E+01
     -4.718  0.0000E+00  0.1000E+01
     -4.640  0.0000E+00  0.1000E+01
     -4.562  0.0000E+00  0.1000E+01
     -4.484  0.0000E+00  0.1000E+01
     -4.406  0.0000E+00  0.1000E+01
     -4.329  0.0000E+00  0.1000E+01
     -4.251  0.0000E+00  0.1000E+01
     -4.173  0.0000E+00  0.1000E+01
     -4.095  0.0000E+00  0.1000E+01
     -4.017  0.0000E+00  0.1000E+01
     -3.940  0.0000E+00  0.1000E+01
     -3.862  0.0000E+00  0.1000E+01
     -3.784  0.0000E+00  0.1000E+01
     -3.706  0.0000E+00  0.1000E+01
     -3.628  0.0000E+00  0.1000E+01
     -3.551  0.0000E+00  0.1000E+01
     -3.473  0.0000E+00  0.1000E+01
     -3.395  0.0000E+00  0.1000E+01
     -3.317  0.0000E+00  0.1000E+01
     -3.239  0.0000E+00  0.1000E+01
     -3.162  0.0000E+00  0.1000E+01
     -3.084  0.0000E+00  0.1000E+01
     -3.006  0.0000E+00  0.1000E+01
     -2.928  0.0000E+00  0.1000E+01
     -2.850  0.0000E+00  0.1000E+01
     -2.773  0.0000E+00  0.1000E+01
     -2.695  0.0000E+00  0.1000E+01
     -2.617  0.0000E+00  0.1000E+01
     -2.539  0.0000E+00  0.1000E+01
     -2.461  0.0000E+00  0.1000E+01
     -2.384  0.0000E+00  0.1000E+01
     -2.306  0.0000E+00  0.1000E+01
     -2.228  0.0000E+00  0.1000E+01
     -2.150  0.0000E+00  0.1000E+01
     -2.072  0.0000E+00  0.1000E+01
     -1.995  0.0000E+00  0.1000E+01
     -1.917  0.0000E+00  0.1000E+01
     -1.839  0.0000E+00  0.1000E+01
     -1.761  0.0000E+00  0.1000E+01
     -1.683  0.0000E+00  0.1000E+01
     -1.606  0.0000E+00  0.1000E+01
     -1.528  0.5708E-15  0.1000E+01
     -1.450  0.4595E-13  0.1000E+01
     -1.372  0.2724E-11  0.1000E+01
     -1.294  0.1200E-09  0.1000E+01
     -1.217  0.3923E-08  0.1000E+01
     -1.139  0.9517E-07  0.1000E+01
     -1.061  0.1715E-05  0.1000E+01
     -0.983  0.2295E-04  0.1000E+01
     -0.905  0.2282E-03  0.1000E+01
     -0.828  0.1687E-02  0.1000E+01
     -0.750  0.9272E-02  0.1001E+01
     -0.672  0.3792E-01  0.1004E+01
     -0.594  0.1156E+00  0.1013E+01
     -0.516  0.2633E+00  0.1033E+01
     -0.439  0.4533E+00  0.1069E+01
     -0.361  0.6107E+00  0.1116E+01
     -0.283  0.7057E+00  0.1171E+01
     -0.205  0.8149E+00  0.1234E+01
     -0.127  0.9996E+00  0.1312E+01
     -0.050  0.1152E+01  0.1402E+01
      0.028  0.1087E+01  0.1486E+01
      0.106  0.7887E+00  0.1548E+01
      0.184  0.4299E+00  0.1581E+01
      0.262  0.1749E+00  0.1595E+01
      0.340  0.5298E-01  0.1599E+01
      0.417  0.1195E-01  0.1600E+01
      0.495  0.2074E-02  0.1600E+01
      0.573  0.8600E-03  0.1600E+01
      0.651  0.3943E-02  0.1600E+01
      0.729  0.1873E-01  0.1602E+01
      0.806  0.6656E-01  0.1607E+01
      0.884  0.1760E+00  0.1621E+01
      0.962  0.3465E+00  0.1648E+01
      1.040  0.5076E+00  0.1687E+01
      1.118  0.5537E+00  0.1730E+01
      1.195  0.4496E+00  0.1765E+01
      1.273  0.2717E+00  0.1786E+01
      1.351  0.1222E+00  0.1796E+01
      1.429  0.4093E-01  0.1799E+01
      1.507  0.1020E-01  0.1800E+01
      1.584  0.1889E-02  0.1800E+01
      1.662  0.2603E-03  0.1800E+01
      1.740  0.2666E-04  0.1800E+01
      1.818  0.2029E-05  0.1800E+01
      1.896  0.1147E-06  0.1800E+01
      1.973  0.4814E-08  0.1800E+01
      2.051  0.1500E-09  0.1800E+01
      2.129  0.3469E-11  0.1800E+01
      2.207  0.5965E-13  0.1800E+01
      2.285  0.5708E-15  0.1800E+01
      2.362  0.0000E+00  0.1800E+01
      2.440  0.0000E+00  0.1800E+01
      2.518  0.0000E+00  0.1800E+01
      2.596  0.0000E+00  0.1800E+01
      2.674  0.0000E+00  0.1800E+01
      2.751  0.0000E+00  0.1800E+01
      2.829  0.0000E+00  0.1800E+01
      2.907  0.0000E+00  0.1800E+01
      2.985  0.0000E+00  0.1800E+01
      3.063  0.0000E+00  0.1800E+01
