    4    4   10    1
  0.1280000E+03  0.8000000E-09  0.8000000E-09  0.8000000E-09  0.5000000E-15
  1.000000000000000E-004
  CAR 
 unknown system                          
   10    1    9
 
  0.0000000E+00  0.0000000E+00  0.0000000E+00  0.1000000E+01
   1      -18.278351
   2      -13.705743
   3      -11.830254
   4       -6.860003
   5       -6.860003
   6       -0.378821
   7       -0.052834
   8       -0.052834
   9        1.062617
