       N       E                     dE             d eps       ncg     rms          rms(c)
DAV:   1     0.500745052300E+02    0.50075E+02   -0.21167E+03    18   0.504E+02
DAV:   2    -0.125727524503E+02   -0.62647E+02   -0.62482E+02    28   0.131E+02
DAV:   3    -0.262077376855E+02   -0.13635E+02   -0.13627E+02    28   0.668E+01
DAV:   4    -0.264094405397E+02   -0.20170E+00   -0.20164E+00    35   0.839E+00
DAV:   5    -0.264096209792E+02   -0.18044E-03   -0.18043E-03    19   0.261E-01    0.854E+00
DAV:   6    -0.235617278931E+02    0.28479E+01   -0.50537E+00    19   0.153E+01    0.384E+00
DAV:   7    -0.229712425424E+02    0.59049E+00   -0.25660E+00    28   0.102E+01    0.141E+00
DAV:   8    -0.229272122391E+02    0.44030E-01   -0.20864E-01    20   0.354E+00    0.466E-01
DAV:   9    -0.229166682143E+02    0.10544E-01   -0.26518E-02    28   0.116E+00    0.206E-01
DAV:  10    -0.229187202674E+02   -0.20521E-02   -0.18169E-02    18   0.791E-01    0.590E-02
DAV:  11    -0.229228282888E+02   -0.41080E-02   -0.19041E-03    19   0.294E-01    0.673E-02
DAV:  12    -0.229273853251E+02   -0.45570E-02   -0.14094E-03    19   0.259E-01    0.129E-02
DAV:  13    -0.229287945040E+02   -0.14092E-02   -0.26602E-04    19   0.111E-01    0.180E-02
DAV:  14    -0.229292909524E+02   -0.49645E-03   -0.13500E-04    18   0.741E-02    0.420E-03
DAV:  15    -0.229294200413E+02   -0.12909E-03   -0.19038E-05    19   0.281E-02    0.329E-03
DAV:  16    -0.229294303338E+02   -0.10293E-04   -0.10718E-06    19   0.623E-03
   1 F= -.22929430E+02 E0= -.22929430E+02  d E =-.229294E+02
       N       E                     dE             d eps       ncg     rms          rms(c)
DAV:   1    -0.223693684602E+02    0.56005E+00   -0.20179E+01    19   0.417E+01    0.188E+00
DAV:   2    -0.222717844027E+02    0.97584E-01   -0.28457E-01    26   0.526E+00    0.957E-01
DAV:   3    -0.222511554255E+02    0.20629E-01   -0.22180E-01    27   0.347E+00    0.310E-01
DAV:   4    -0.222477982190E+02    0.33572E-02   -0.15842E-02    18   0.940E-01    0.124E-01
DAV:   5    -0.222477910830E+02    0.71360E-05   -0.16004E-03    18   0.279E-01    0.236E-02
DAV:   6    -0.222478735946E+02   -0.82512E-04   -0.23652E-04    19   0.109E-01
   2 F= -.22247874E+02 E0= -.22247874E+02  d E =0.681557E+00
       N       E                     dE             d eps       ncg     rms          rms(c)
DAV:   1    -0.230374120581E+02   -0.78962E+00   -0.17295E+01    18   0.394E+01    0.168E+00
DAV:   2    -0.229533858187E+02    0.84026E-01   -0.22376E-01    26   0.467E+00    0.874E-01
DAV:   3    -0.229349954701E+02    0.18390E-01   -0.14615E-01    18   0.288E+00    0.215E-01
DAV:   4    -0.229351645802E+02   -0.16911E-03   -0.28728E-02    18   0.125E+00    0.185E-01
DAV:   5    -0.229340986428E+02    0.10659E-02   -0.55059E-03    18   0.611E-01    0.186E-02
DAV:   6    -0.229341595644E+02   -0.60922E-04   -0.34405E-04    19   0.175E-01
   3 F= -.22934160E+02 E0= -.22934160E+02  d E =-.472923E-02
