<?xml version="1.0" encoding="ISO-8859-1"?>
<modeling>
 <generator>
  <i name="program" type="string">vasp </i>
  <i name="version" type="string">5.2.12  </i>
  <i name="subversion" type="string">11Nov11 complex                                                      parallel </i>
  <i name="platform" type="string">LinuxIFC </i>
  <i name="date" type="string">2012 11 03 </i>
  <i name="time" type="string">02:06:34 </i>
 </generator>
 <incar>
  <i type="string" name="PREC">normal</i>
  <i type="int" name="IBRION">     2</i>
  <i type="int" name="NSW">    10</i>
  <i name="ENCUT">    400.00000000</i>
  <i type="int" name="ISMEAR">     0</i>
 </incar>
 <kpoints>
  <generation param="Monkhorst-Pack">
   <v type="int" name="divisions">       1        1        1 </v>
   <v name="usershift">      0.00000000       0.00000000       0.00000000 </v>
   <v name="genvec1">      1.00000000       0.00000000       0.00000000 </v>
   <v name="genvec2">      0.00000000       1.00000000       0.00000000 </v>
   <v name="genvec3">      0.00000000       0.00000000       1.00000000 </v>
   <v name="shift">      0.00000000       0.00000000       0.00000000 </v>
  </generation>
  <varray name="kpointlist" >
   <v>       0.00000000       0.00000000       0.00000000 </v>
  </varray>
  <varray name="weights" >
   <v>       1.00000000 </v>
  </varray>
 </kpoints>
 <parameters>
  <separator name="general" >
   <i type="string" name="SYSTEM">unknown system</i>
   <i type="logical" name="LCOMPAT"> F  </i>
  </separator>
  <separator name="electronic" >
   <i type="string" name="PREC">normal</i>
   <i name="ENMAX">    400.00000000</i>
   <i name="ENAUG">    644.87300000</i>
   <i name="EDIFF">      0.00010000</i>
   <i type="int" name="IALGO">    38</i>
   <i type="int" name="IWAVPR">    11</i>
   <i type="int" name="NBANDS">     9</i>
   <i name="NELECT">     10.00000000</i>
   <i type="int" name="TURBO">     0</i>
   <i type="int" name="IRESTART">     0</i>
   <i type="int" name="NREBOOT">     0</i>
   <i type="int" name="NMIN">     0</i>
   <i name="EREF">      0.00000000</i>
   <separator name="electronic smearing" >
    <i type="int" name="ISMEAR">     0</i>
    <i name="SIGMA">      0.20000000</i>
    <i name="KSPACING">      0.50000000</i>
    <i type="logical" name="KGAMMA"> T  </i>
   </separator>
   <separator name="electronic projectors" >
    <i type="logical" name="LREAL"> F  </i>
    <v name="ROPT">      0.00000000      0.00000000</v>
    <i type="int" name="LMAXPAW">  -100</i>
    <i type="int" name="LMAXMIX">     2</i>
    <i type="logical" name="NLSPLINE"> F  </i>
   </separator>
   <separator name="electronic startup" >
    <i type="int" name="ISTART">     0</i>
    <i type="int" name="ICHARG">     2</i>
    <i type="int" name="INIWAV">     1</i>
   </separator>
   <separator name="electronic spin" >
    <i type="int" name="ISPIN">     1</i>
    <i type="logical" name="LNONCOLLINEAR"> F  </i>
    <v name="MAGMOM">      1.00000000      1.00000000      1.00000000      1.00000000</v>
    <i name="NUPDOWN">     -1.00000000</i>
    <i type="logical" name="LSORBIT"> F  </i>
    <v name="SAXIS">      0.00000000      0.00000000      1.00000000</v>
    <i type="logical" name="LSPIRAL"> F  </i>
    <v name="QSPIRAL">      0.00000000      0.00000000      0.00000000</v>
    <i type="logical" name="LZEROZ"> F  </i>
   </separator>
   <separator name="electronic exchange-correlation" >
    <i type="logical" name="LASPH"> F  </i>
    <i type="logical" name="LMETAGGA"> F  </i>
   </separator>
   <separator name="electronic convergence" >
    <i type="int" name="NELM">    60</i>
    <i type="int" name="NELMDL">    -5</i>
    <i type="int" name="NELMIN">     2</i>
    <i name="ENINI">    400.00000000</i>
    <separator name="electronic convergence detail" >
     <i type="logical" name="LDIAG"> T  </i>
     <i type="logical" name="LSUBROT"> T  </i>
     <i name="WEIMIN">      0.00100000</i>
     <i name="EBREAK">      0.00000278</i>
     <i name="DEPER">      0.30000000</i>
     <i type="int" name="NRMM">     4</i>
     <i name="TIME">      0.40000000</i>
    </separator>
   </separator>
   <separator name="electronic mixer" >
    <i name="AMIX">      0.40000000</i>
    <i name="BMIX">      1.00000000</i>
    <i name="AMIN">      0.10000000</i>
    <i name="AMIX_MAG">      1.60000000</i>
    <i name="BMIX_MAG">      1.00000000</i>
    <separator name="electronic mixer details" >
     <i type="int" name="IMIX">     4</i>
     <i type="int" name="MAXMIX">   -45</i>
     <i name="WC">    100.00000000</i>
     <i type="int" name="INIMIX">     1</i>
     <i type="int" name="MIXPRE">     1</i>
     <i type="int" name="MREMOVE">     5</i>
    </separator>
   </separator>
   <separator name="electronic dipolcorrection" >
    <i type="logical" name="LDIPOL"> F  </i>
    <i type="logical" name="LMONO"> F  </i>
    <i type="int" name="IDIPOL">     0</i>
    <i name="EPSILON">      1.00000000</i>
    <v name="DIPOL">   -100.00000000   -100.00000000   -100.00000000</v>
    <i name="EFIELD">      0.00000000</i>
   </separator>
  </separator>
  <separator name="grids" >
   <i type="int" name="NGX">    40</i>
   <i type="int" name="NGY">    40</i>
   <i type="int" name="NGZ">    40</i>
   <i type="int" name="NGXF">    80</i>
   <i type="int" name="NGYF">    80</i>
   <i type="int" name="NGZF">    80</i>
   <i type="logical" name="ADDGRID"> F  </i>
  </separator>
  <separator name="ionic" >
   <i type="int" name="NSW">    10</i>
   <i type="int" name="IBRION">     2</i>
   <i type="int" name="ISIF">     2</i>
   <i name="PSTRESS">      0.00000000</i>
   <i name="EDIFFG">      0.00100000</i>
   <i type="int" name="NFREE">     1</i>
   <i name="POTIM">      0.50000000</i>
   <i name="SMASS">     -3.00000000</i>
   <i name="SCALEE">      1.00000000</i>
  </separator>
  <separator name="ionic md" >
   <i name="TEBEG">      0.00010000</i>
   <i name="TEEND">      0.00010000</i>
   <i type="int" name="NBLOCK">     1</i>
   <i type="int" name="KBLOCK">    10</i>
   <i type="int" name="NPACO">   256</i>
   <i name="APACO">     16.00000000</i>
  </separator>
  <separator name="symmetry" >
   <i type="int" name="ISYM">     2</i>
   <i name="SYMPREC">      0.00001000</i>
  </separator>
  <separator name="dos" >
   <i type="logical" name="LORBIT"> F  </i>
   <v name="RWIGS">     -1.00000000     -1.00000000</v>
   <i type="int" name="NEDOS">   301</i>
   <i name="EMIN">     10.00000000</i>
   <i name="EMAX">    -10.00000000</i>
   <i name="EFERMI">      0.00000000</i>
  </separator>
  <separator name="writing" >
   <i type="int" name="NWRITE">     2</i>
   <i type="logical" name="LWAVE"> T  </i>
   <i type="logical" name="LCHARG"> T  </i>
   <i type="logical" name="LPARD"> F  </i>
   <i type="logical" name="LVTOT"> F  </i>
   <i type="logical" name="LVHAR"> F  </i>
   <i type="logical" name="LELF"> F  </i>
   <i type="logical" name="LOPTICS"> F  </i>
   <v name="STM">      0.00000000      0.00000000      0.00000000      0.00000000      0.00000000      0.00000000      0.00000000</v>
  </separator>
  <separator name="performance" >
   <i type="int" name="NPAR">     1</i>
   <i type="int" name="NSIM">     4</i>
   <i type="int" name="NBLK">    -1</i>
   <i type="logical" name="LPLANE"> T  </i>
   <i type="logical" name="LSCALAPACK"> F  </i>
   <i type="logical" name="LSCAAWARE"> F  </i>
   <i type="logical" name="LSCALU"> F  </i>
   <i type="logical" name="LASYNC"> F  </i>
   <i type="logical" name="LORBITALREAL"> F  </i>
  </separator>
  <separator name="miscellaneous" >
   <i type="int" name="IDIOT">     3</i>
   <i type="logical" name="LMUSIC"> F  </i>
   <v name="POMASS">      1.00000000     12.01100000</v>
   <v name="DARWINR">      0.00000000      0.00000000</v>
   <v name="DARWINV">      1.00000000      1.00000000</v>
   <i type="logical" name="LCORR"> T  </i>
  </separator>
  <i type="logical" name="GGA_COMPAT"> T  </i>
  <i type="logical" name="LBERRY"> F  </i>
  <i type="int" name="ICORELEVEL">     0</i>
  <i type="logical" name="LDAU"> F  </i>
  <i type="int" name="I_CONSTRAINED_M">     0</i>
  <separator name="electronic exchange-correlation" >
   <i type="string" name="GGA">--</i>
   <i type="int" name="VOSKOWN">     0</i>
   <i type="logical" name="LHFCALC"> F  </i>
   <i type="string" name="PRECFOCK"></i>
   <i type="logical" name="LHFONE"> F  </i>
   <i type="logical" name="LRHFCALC"> F  </i>
   <i type="logical" name="LTHOMAS"> F  </i>
   <i type="logical" name="LMODELHF"> F  </i>
   <i name="ENCUT4O">     -1.00000000</i>
   <i type="int" name="EXXOEP">     0</i>
   <i type="int" name="FOURORBIT">     0</i>
   <i name="AEXX">      0.00000000</i>
   <i name="HFALPHA">      0.00000000</i>
   <i name="ALDAX">      1.00000000</i>
   <i name="AGGAX">      1.00000000</i>
   <i name="ALDAC">      1.00000000</i>
   <i name="AGGAC">      1.00000000</i>
   <i type="int" name="NKREDX">     1</i>
   <i type="int" name="NKREDY">     1</i>
   <i type="int" name="NKREDZ">     1</i>
   <i type="logical" name="SHIFTRED"> F  </i>
   <i type="logical" name="ODDONLY"> F  </i>
   <i type="logical" name="EVENONLY"> F  </i>
   <i type="int" name="LMAXFOCK">     0</i>
   <i type="int" name="NMAXFOCKAE">     0</i>
   <i type="logical" name="LFOCKAEDFT"> F  </i>
   <i name="HFSCREEN">      0.00000000</i>
   <i name="HFSCREENC">      0.00000000</i>
  </separator>
  <separator name="vdW DFT" >
   <i type="logical" name="LUSE_VDW"> F  </i>
   <i name="Zab_VDW">     -0.84910000</i>
   <i name="PARAM1">      0.12340000</i>
   <i name="PARAM2">      1.00000000</i>
   <i name="PARAM3">      0.00000000</i>
  </separator>
  <separator name="model GW" >
   <i type="int" name="MODEL_GW">     0</i>
   <i name="MODEL_EPS0">     76.80000000</i>
   <i name="MODEL_ALPHA">      1.00000000</i>
  </separator>
  <separator name="linear response parameters" >
   <i type="logical" name="LEPSILON"> F  </i>
   <i type="logical" name="LRPA"> F  </i>
   <i type="logical" name="LNABLA"> F  </i>
   <i type="logical" name="LVEL"> F  </i>
   <i type="int" name="KINTER">     0</i>
   <i name="CSHIFT">      0.10000000</i>
   <i name="OMEGAMAX">     -1.00000000</i>
  </separator>
  <separator name="orbital magnetization" >
   <i type="logical" name="NUCIND"> F  </i>
   <v name="MAGPOS">      0.00000000      0.00000000      0.00000000</v>
   <i type="logical" name="LNICSALL"> T  </i>
   <i type="logical" name="ORBITALMAG"> F  </i>
   <i type="logical" name="LMAGBLOCH"> F  </i>
   <i type="logical" name="LCHIMAG"> F  </i>
   <i type="logical" name="LGAUGE"> T  </i>
   <i type="int" name="MAGATOM">     0</i>
   <v name="MAGDIPOL">      0.00000000      0.00000000      0.00000000</v>
   <v name="AVECCONST">      0.00000000      0.00000000      0.00000000</v>
  </separator>
  <separator name="response functions" >
   <i type="logical" name="LADDER"> F  </i>
   <i type="logical" name="LHARTREE"> T  </i>
   <i type="int" name="IBSE">     0</i>
   <i type="logical" name="LTCTE"> F  </i>
   <i type="logical" name="LTETE"> F  </i>
   <i type="logical" name="LFXCEPS"> F  </i>
   <i type="logical" name="L2ORDER"> F  </i>
   <i type="logical" name="LUSEW"> F  </i>
   <i name="ENCUTGW">     -2.00000000</i>
   <i name="ENCUTGWSOFT">     -2.00000000</i>
   <i name="ENCUTLF">     -1.00000000</i>
   <i type="int" name="LMAXMP2">    -1</i>
   <i name="SCISSOR">      0.00000000</i>
   <i type="int" name="NOMEGA">     0</i>
   <i type="int" name="NOMEGAR">     0</i>
   <i type="int" name="NBANDSGW">    -1</i>
   <i type="int" name="NBANDSO">    -1</i>
   <i type="int" name="NBANDSV">    -1</i>
   <i name="OPTEMAX">      0.00000000</i>
   <i type="int" name="NELM">     1</i>
   <i type="int" name="DIM">     3</i>
   <i type="int" name="ANTIRES">     0</i>
   <i name="OMEGAMAX">    -30.00000000</i>
   <i name="OMEGATL">   -200.00000000</i>
   <i type="int" name="OMEGAGRID">     0</i>
   <i name="CSHIFT">     -0.10000000</i>
   <i type="logical" name="SELFENERGY"> F  </i>
   <i type="logical" name="LSPECTRAL"> F  </i>
   <i type="logical" name="ODDONLYGW"> F  </i>
   <i type="logical" name="EVENONLYGW"> F  </i>
   <i type="int" name="NKREDLFX">     1</i>
   <i type="int" name="NKREDLFY">     1</i>
   <i type="int" name="NKREDLFZ">     1</i>
   <i type="int" name="MAXMEM">  1800</i>
   <i type="int" name="TELESCOPE">     0</i>
  </separator>
 </parameters>
 <atominfo>
  <atoms>       4 </atoms>
  <types>       2 </types>
  <array name="atoms" >
   <dimension dim="1">ion</dimension>
   <field type="string">element</field>
   <field type="int">atomtype</field>
   <set>
    <rc><c>H </c><c>   1</c></rc>
    <rc><c>H </c><c>   1</c></rc>
    <rc><c>C </c><c>   2</c></rc>
    <rc><c>C </c><c>   2</c></rc>
   </set>
  </array>
  <array name="atomtypes" >
   <dimension dim="1">type</dimension>
   <field type="int">atomspertype</field>
   <field type="string">element</field>
   <field>mass</field>
   <field>valence</field>
   <field type="string">pseudopotential</field>
   <set>
    <rc><c>   2</c><c>H </c><c>      1.00000000</c><c>      1.00000000</c><c> PAW_PBE H 15Jun2001                    </c></rc>
    <rc><c>   2</c><c>C </c><c>     12.01100000</c><c>      4.00000000</c><c> PAW_PBE C 08Apr2002                    </c></rc>
   </set>
  </array>
 </atominfo>
 <structure name="initialpos" >
  <crystal>
   <varray name="basis" >
    <v>       8.00000000       0.00000000       0.00000000 </v>
    <v>       0.00000000       8.00000000       0.00000000 </v>
    <v>       0.00000000       0.00000000       8.00000000 </v>
   </varray>
   <i name="volume">    512.00000000 </i>
   <varray name="rec_basis" >
    <v>       0.12500000       0.00000000       0.00000000 </v>
    <v>       0.00000000       0.12500000       0.00000000 </v>
    <v>       0.00000000       0.00000000       0.12500000 </v>
   </varray>
  </crystal>
  <varray name="positions" >
   <v>       0.00000000       0.00000000       0.79075125 </v>
   <v>       0.00000000       0.00000000       0.20924875 </v>
   <v>       0.00000000       0.00000000       0.07601000 </v>
   <v>       0.00000000       0.00000000       0.92399000 </v>
  </varray>
 </structure>
 <calculation>
  <scstep>
   <time name="dav">    0.32    0.32</time>
   <time name="total">    1.12    1.12</time>
   <energy>
    <i name="alphaZ">      0.89086884 </i>
    <i name="ewald">    102.54077057 </i>
    <i name="hartreedc">   -317.70358761 </i>
    <i name="XCdc">     30.23698627 </i>
    <i name="pawpsdc">     77.22553761 </i>
    <i name="pawaedc">    -79.54451240 </i>
    <i name="eentropy">     -0.00000001 </i>
    <i name="bandstr">    -82.78327111 </i>
    <i name="atom">    319.21171307 </i>
    <i name="e_fr_energy">     50.07450523 </i>
    <i name="e_wo_entrp">     50.07450524 </i>
    <i name="e_0_energy">     50.07450524 </i>
   </energy>
  </scstep>
  <scstep>
   <time name="dav">    0.45    0.45</time>
   <time name="total">    0.45    0.50</time>
   <energy>
    <i name="e_fr_energy">    -12.57275245 </i>
    <i name="e_wo_entrp">    -12.57275245 </i>
    <i name="e_0_energy">    -12.57275245 </i>
   </energy>
  </scstep>
  <scstep>
   <time name="dav">    0.51    0.51</time>
   <time name="total">    0.51    0.63</time>
   <energy>
    <i name="e_fr_energy">    -26.20773769 </i>
    <i name="e_wo_entrp">    -26.20773769 </i>
    <i name="e_0_energy">    -26.20773769 </i>
   </energy>
  </scstep>
  <scstep>
   <time name="dav">    0.61    0.61</time>
   <time name="total">    0.61    0.73</time>
   <energy>
    <i name="e_fr_energy">    -26.40944054 </i>
    <i name="e_wo_entrp">    -26.40944054 </i>
    <i name="e_0_energy">    -26.40944054 </i>
   </energy>
  </scstep>
  <scstep>
   <time name="dav">    0.37    0.37</time>
   <time name="total">    0.53    0.58</time>
   <energy>
    <i name="e_fr_energy">    -26.40962098 </i>
    <i name="e_wo_entrp">    -26.40962098 </i>
    <i name="e_0_energy">    -26.40962098 </i>
   </energy>
  </scstep>
  <scstep>
   <time name="dav">    0.37    0.37</time>
   <time name="total">    1.47    1.49</time>
   <energy>
    <i name="e_fr_energy">    -23.56172789 </i>
    <i name="e_wo_entrp">    -23.56172789 </i>
    <i name="e_0_energy">    -23.56172789 </i>
   </energy>
  </scstep>
  <scstep>
   <time name="dav">    0.50    0.50</time>
   <time name="total">    1.60    1.62</time>
   <energy>
    <i name="e_fr_energy">    -22.97124254 </i>
    <i name="e_wo_entrp">    -22.97124254 </i>
    <i name="e_0_energy">    -22.97124254 </i>
   </energy>
  </scstep>
  <scstep>
   <time name="dav">    0.38    0.38</time>
   <time name="total">    1.47    1.51</time>
   <energy>
    <i name="e_fr_energy">    -22.92721224 </i>
    <i name="e_wo_entrp">    -22.92721224 </i>
    <i name="e_0_energy">    -22.92721224 </i>
   </energy>
  </scstep>
  <scstep>
   <time name="dav">    0.50    0.50</time>
   <time name="total">    1.59    1.66</time>
   <energy>
    <i name="e_fr_energy">    -22.91666821 </i>
    <i name="e_wo_entrp">    -22.91666821 </i>
    <i name="e_0_energy">    -22.91666821 </i>
   </energy>
  </scstep>
  <scstep>
   <time name="dav">    0.36    0.36</time>
   <time name="total">    1.43    1.50</time>
   <energy>
    <i name="e_fr_energy">    -22.91872027 </i>
    <i name="e_wo_entrp">    -22.91872027 </i>
    <i name="e_0_energy">    -22.91872027 </i>
   </energy>
  </scstep>
  <scstep>
   <time name="dav">    0.37    0.37</time>
   <time name="total">    1.44    1.52</time>
   <energy>
    <i name="e_fr_energy">    -22.92282829 </i>
    <i name="e_wo_entrp">    -22.92282829 </i>
    <i name="e_0_energy">    -22.92282829 </i>
   </energy>
  </scstep>
  <scstep>
   <time name="dav">    0.37    0.37</time>
   <time name="total">    1.44    1.49</time>
   <energy>
    <i name="e_fr_energy">    -22.92738533 </i>
    <i name="e_wo_entrp">    -22.92738533 </i>
    <i name="e_0_energy">    -22.92738533 </i>
   </energy>
  </scstep>
  <scstep>
   <time name="dav">    0.37    0.37</time>
   <time name="total">    1.44    1.51</time>
   <energy>
    <i name="e_fr_energy">    -22.92879450 </i>
    <i name="e_wo_entrp">    -22.92879450 </i>
    <i name="e_0_energy">    -22.92879450 </i>
   </energy>
  </scstep>
  <scstep>
   <time name="dav">    0.36    0.36</time>
   <time name="total">    1.43    1.46</time>
   <energy>
    <i name="e_fr_energy">    -22.92929095 </i>
    <i name="e_wo_entrp">    -22.92929095 </i>
    <i name="e_0_energy">    -22.92929095 </i>
   </energy>
  </scstep>
  <scstep>
   <time name="dav">    0.36    0.36</time>
   <time name="total">    1.42    1.47</time>
   <energy>
    <i name="e_fr_energy">    -22.92942004 </i>
    <i name="e_wo_entrp">    -22.92942004 </i>
    <i name="e_0_energy">    -22.92942004 </i>
   </energy>
  </scstep>
  <scstep>
   <time name="dav">    0.37    0.38</time>
   <time name="total">    1.30    1.36</time>
   <energy>
    <i name="alphaZ">      0.89086884 </i>
    <i name="ewald">    102.54077057 </i>
    <i name="hartreedc">   -360.55382379 </i>
    <i name="XCdc">     32.76040382 </i>
    <i name="pawpsdc">    148.72859364 </i>
    <i name="pawaedc">   -151.37558566 </i>
    <i name="eentropy">      0.00000000 </i>
    <i name="bandstr">   -115.13237083 </i>
    <i name="atom">    319.21171307 </i>
    <i name="e_fr_energy">    -22.92943033 </i>
    <i name="e_wo_entrp">    -22.92943033 </i>
    <i name="e_0_energy">    -22.92943033 </i>
   </energy>
  </scstep>
  <parameters_embedded>
   <separator name="dft+d2" >
    <i type="logical" name="LVDW"> F  </i>
   </separator>
  </parameters_embedded>
  <structure>
   <crystal>
    <varray name="basis" >
     <v>       8.00000000       0.00000000       0.00000000 </v>
     <v>       0.00000000       8.00000000       0.00000000 </v>
     <v>       0.00000000       0.00000000       8.00000000 </v>
    </varray>
    <i name="volume">    512.00000000 </i>
    <varray name="rec_basis" >
     <v>       0.12500000       0.00000000       0.00000000 </v>
     <v>       0.00000000       0.12500000       0.00000000 </v>
     <v>       0.00000000       0.00000000       0.12500000 </v>
    </varray>
   </crystal>
   <varray name="positions" >
    <v>       0.00000000       0.00000000       0.79075125 </v>
    <v>       0.00000000       0.00000000       0.20924875 </v>
    <v>       0.00000000       0.00000000       0.07601000 </v>
    <v>       0.00000000       0.00000000       0.92399000 </v>
   </varray>
  </structure>
  <varray name="forces" >
   <v>       0.00000000       0.00000000      -0.19827401 </v>
   <v>       0.00000000       0.00000000       0.19827401 </v>
   <v>       0.00000000       0.00000000      -1.08185025 </v>
   <v>       0.00000000       0.00000000       1.08185025 </v>
  </varray>
  <varray name="stress" >
   <v>      -1.28271465       0.00000000       0.00000000 </v>
   <v>       0.00000000      -1.28271465       0.00000000 </v>
   <v>       0.00000000       0.00000000      -3.18298308 </v>
  </varray>
  <energy>
   <i name="e_fr_energy">    -22.92943033 </i>
   <i name="e_wo_entrp">    -22.92943033 </i>
   <i name="e_0_energy">      0.00000000 </i>
  </energy>
  <time name="totalsc">   22.19   23.68</time>
 </calculation>
 <calculation>
  <scstep>
   <time name="dav">    0.38    0.38</time>
   <time name="total">    1.45    1.50</time>
   <energy>
    <i name="alphaZ">      0.89086884 </i>
    <i name="ewald">    115.06793586 </i>
    <i name="hartreedc">   -367.90994116 </i>
    <i name="XCdc">     32.98822266 </i>
    <i name="pawpsdc">    148.72805006 </i>
    <i name="pawaedc">   -151.37505437 </i>
    <i name="eentropy">      0.00000000 </i>
    <i name="bandstr">   -119.97116342 </i>
    <i name="atom">    319.21171307 </i>
    <i name="e_fr_energy">    -22.36936846 </i>
    <i name="e_wo_entrp">    -22.36936846 </i>
    <i name="e_0_energy">    -22.36936846 </i>
   </energy>
  </scstep>
  <scstep>
   <time name="dav">    0.48    0.48</time>
   <time name="total">    1.58    1.59</time>
   <energy>
    <i name="e_fr_energy">    -22.27178440 </i>
    <i name="e_wo_entrp">    -22.27178440 </i>
    <i name="e_0_energy">    -22.27178440 </i>
   </energy>
  </scstep>
  <scstep>
   <time name="dav">    0.50    0.50</time>
   <time name="total">    1.62    2.05</time>
   <energy>
    <i name="e_fr_energy">    -22.25115543 </i>
    <i name="e_wo_entrp">    -22.25115543 </i>
    <i name="e_0_energy">    -22.25115543 </i>
   </energy>
  </scstep>
  <scstep>
   <time name="dav">    0.37    0.37</time>
   <time name="total">    1.49    1.53</time>
   <energy>
    <i name="e_fr_energy">    -22.24779822 </i>
    <i name="e_wo_entrp">    -22.24779822 </i>
    <i name="e_0_energy">    -22.24779822 </i>
   </energy>
  </scstep>
  <scstep>
   <time name="dav">    0.39    0.39</time>
   <time name="total">    1.51    1.53</time>
   <energy>
    <i name="e_fr_energy">    -22.24779108 </i>
    <i name="e_wo_entrp">    -22.24779108 </i>
    <i name="e_0_energy">    -22.24779108 </i>
   </energy>
  </scstep>
  <scstep>
   <time name="dav">    0.38    0.38</time>
   <time name="total">    1.33    1.35</time>
   <energy>
    <i name="alphaZ">      0.89086884 </i>
    <i name="ewald">    115.06793586 </i>
    <i name="hartreedc">   -372.80339432 </i>
    <i name="XCdc">     33.21351348 </i>
    <i name="pawpsdc">    165.98623650 </i>
    <i name="pawaedc">   -168.72565912 </i>
    <i name="eentropy">      0.00000000 </i>
    <i name="bandstr">   -115.08908792 </i>
    <i name="atom">    319.21171307 </i>
    <i name="e_fr_energy">    -22.24787359 </i>
    <i name="e_wo_entrp">    -22.24787359 </i>
    <i name="e_0_energy">    -22.24787359 </i>
   </energy>
  </scstep>
  <structure>
   <crystal>
    <varray name="basis" >
     <v>       8.00000000       0.00000000       0.00000000 </v>
     <v>       0.00000000       8.00000000       0.00000000 </v>
     <v>       0.00000000       0.00000000       8.00000000 </v>
    </varray>
    <i name="volume">    512.00000000 </i>
    <varray name="rec_basis" >
     <v>       0.12500000       0.00000000       0.00000000 </v>
     <v>       0.00000000       0.12500000       0.00000000 </v>
     <v>       0.00000000       0.00000000       0.12500000 </v>
    </varray>
   </crystal>
   <varray name="positions" >
    <v>       0.00000000       0.00000000       0.78955559 </v>
    <v>       0.00000000       0.00000000       0.21044441 </v>
    <v>       0.00000000       0.00000000       0.06948608 </v>
    <v>       0.00000000       0.00000000       0.93051392 </v>
   </varray>
  </structure>
  <varray name="forces" >
   <v>       0.00000000       0.00000000       1.91812307 </v>
   <v>       0.00000000       0.00000000      -1.91812307 </v>
   <v>       0.00000000       0.00000000      14.97996237 </v>
   <v>       0.00000000       0.00000000     -14.97996237 </v>
  </varray>
  <varray name="stress" >
   <v>      -1.00219604       0.00000000       0.00000000 </v>
   <v>       0.00000000      -1.00219604       0.00000000 </v>
   <v>       0.00000000       0.00000000      31.11402659 </v>
  </varray>
  <energy>
   <i name="e_fr_energy">    -22.24787359 </i>
   <i name="e_wo_entrp">    -22.24787359 </i>
   <i name="e_0_energy">      0.00000000 </i>
  </energy>
  <time name="totalsc">   10.98   11.66</time>
 </calculation>
 <calculation>
  <scstep>
   <time name="dav">    0.38    0.39</time>
   <time name="total">    1.50    1.51</time>
   <energy>
    <i name="alphaZ">      0.89086884 </i>
    <i name="ewald">    103.44819952 </i>
    <i name="hartreedc">   -365.86905086 </i>
    <i name="XCdc">     32.99408625 </i>
    <i name="pawpsdc">    166.26310113 </i>
    <i name="pawaedc">   -169.00426081 </i>
    <i name="eentropy">      0.00000000 </i>
    <i name="bandstr">   -110.97206921 </i>
    <i name="atom">    319.21171307 </i>
    <i name="e_fr_energy">    -23.03741206 </i>
    <i name="e_wo_entrp">    -23.03741206 </i>
    <i name="e_0_energy">    -23.03741206 </i>
   </energy>
  </scstep>
  <scstep>
   <time name="dav">    0.49    0.49</time>
   <time name="total">    1.56    3.10</time>
   <energy>
    <i name="e_fr_energy">    -22.95338582 </i>
    <i name="e_wo_entrp">    -22.95338582 </i>
    <i name="e_0_energy">    -22.95338582 </i>
   </energy>
  </scstep>
  <scstep>
   <time name="dav">    0.37    0.37</time>
   <time name="total">    1.37    1.60</time>
   <energy>
    <i name="e_fr_energy">    -22.93499547 </i>
    <i name="e_wo_entrp">    -22.93499547 </i>
    <i name="e_0_energy">    -22.93499547 </i>
   </energy>
  </scstep>
  <scstep>
   <time name="dav">    0.37    0.37</time>
   <time name="total">    1.39    1.66</time>
   <energy>
    <i name="e_fr_energy">    -22.93516458 </i>
    <i name="e_wo_entrp">    -22.93516458 </i>
    <i name="e_0_energy">    -22.93516458 </i>
   </energy>
  </scstep>
  <scstep>
   <time name="dav">    0.37    0.37</time>
   <time name="total">    1.41    1.44</time>
   <energy>
    <i name="e_fr_energy">    -22.93409864 </i>
    <i name="e_wo_entrp">    -22.93409864 </i>
    <i name="e_0_energy">    -22.93409864 </i>
   </energy>
  </scstep>
  <scstep>
   <time name="dav">    0.37    0.37</time>
   <time name="total">    1.24    1.25</time>
   <energy>
    <i name="alphaZ">      0.89086884 </i>
    <i name="ewald">    103.44819952 </i>
    <i name="hartreedc">   -361.55927806 </i>
    <i name="XCdc">     32.79506335 </i>
    <i name="pawpsdc">    149.91071513 </i>
    <i name="pawaedc">   -152.56273379 </i>
    <i name="eentropy">      0.00000000 </i>
    <i name="bandstr">   -115.06870763 </i>
    <i name="atom">    319.21171307 </i>
    <i name="e_fr_energy">    -22.93415956 </i>
    <i name="e_wo_entrp">    -22.93415956 </i>
    <i name="e_0_energy">    -22.93415956 </i>
   </energy>
  </scstep>
  <structure>
   <crystal>
    <varray name="basis" >
     <v>       8.00000000       0.00000000       0.00000000 </v>
     <v>       0.00000000       8.00000000       0.00000000 </v>
     <v>       0.00000000       0.00000000       8.00000000 </v>
    </varray>
    <i name="volume">    512.00000000 </i>
    <varray name="rec_basis" >
     <v>       0.12500000       0.00000000       0.00000000 </v>
     <v>       0.00000000       0.12500000       0.00000000 </v>
     <v>       0.00000000       0.00000000       0.12500000 </v>
    </varray>
   </crystal>
   <varray name="positions" >
    <v>       0.00000000       0.00000000       0.79065056 </v>
    <v>       0.00000000       0.00000000       0.20934944 </v>
    <v>       0.00000000       0.00000000       0.07546059 </v>
    <v>       0.00000000       0.00000000       0.92453941 </v>
   </varray>
  </structure>
  <varray name="forces" >
   <v>       0.00000000       0.00000000       0.00903640 </v>
   <v>       0.00000000       0.00000000      -0.00903640 </v>
   <v>       0.00000000       0.00000000       0.00601370 </v>
   <v>       0.00000000       0.00000000      -0.00601370 </v>
  </varray>
  <varray name="stress" >
   <v>      -1.25980095       0.00000000       0.00000000 </v>
   <v>       0.00000000      -1.25980095       0.00000000 </v>
   <v>       0.00000000       0.00000000      -1.18661690 </v>
  </varray>
  <energy>
   <i name="e_fr_energy">    -22.93415956 </i>
   <i name="e_wo_entrp">    -22.93415956 </i>
   <i name="e_0_energy">      0.00000000 </i>
  </energy>
  <time name="totalsc">   10.19   13.58</time>
  <eigenvalues>
   <array>
    <dimension dim="1">band</dimension>
    <dimension dim="2">kpoint</dimension>
    <dimension dim="3">spin</dimension>
    <field>eigene</field>
    <field>occ</field>
    <set>
     <set comment="spin 1">
      <set comment="kpoint 1">
       <r>  -18.2784    1.0000 </r>
       <r>  -13.7057    1.0000 </r>
       <r>  -11.8303    1.0000 </r>
       <r>   -6.8600    1.0000 </r>
       <r>   -6.8600    1.0000 </r>
       <r>   -0.3788    0.0000 </r>
       <r>   -0.0528    0.0000 </r>
       <r>   -0.0528    0.0000 </r>
       <r>    1.0626    0.0000 </r>
      </set>
     </set>
    </set>
   </array>
  </eigenvalues>
  <separator name="orbital magnetization" >
   <v name="MAGDIPOLOUT">      0.00000000      0.00000000      0.00000000</v>
  </separator>
  <dos>
   <i name="efermi">     -5.88460199 </i>
   <total>
    <array>
     <dimension dim="1">gridpoints</dimension>
     <dimension dim="2">spin</dimension>
     <field>energy</field>
     <field>total</field>
     <field>integrated</field>
     <set>
      <set comment="spin 1">
       <r>   -20.2784     0.0000     0.0000 </r>
       <r>   -20.2005     0.0000     0.0000 </r>
       <r>   -20.1227     0.0000     0.0000 </r>
       <r>   -20.0449     0.0000     0.0000 </r>
       <r>   -19.9671     0.0000     0.0000 </r>
       <r>   -19.8893     0.0000     0.0000 </r>
       <r>   -19.8115     0.0000     0.0000 </r>
       <r>   -19.7337     0.0000     0.0000 </r>
       <r>   -19.6559     0.0000     0.0000 </r>
       <r>   -19.5781     0.0000     0.0000 </r>
       <r>   -19.5003     0.0000     0.0000 </r>
       <r>   -19.4225     0.0000     0.0000 </r>
       <r>   -19.3447     0.0000     0.0000 </r>
       <r>   -19.2669     0.0000     0.0000 </r>
       <r>   -19.1891     0.0000     0.0000 </r>
       <r>   -19.1113     0.0000     0.0000 </r>
       <r>   -19.0335     0.0000     0.0000 </r>
       <r>   -18.9557     0.0000     0.0000 </r>
       <r>   -18.8779     0.0003     0.0000 </r>
       <r>   -18.8001     0.0026     0.0002 </r>
       <r>   -18.7223     0.0189     0.0017 </r>
       <r>   -18.6445     0.1020     0.0096 </r>
       <r>   -18.5667     0.4093     0.0415 </r>
       <r>   -18.4889     1.2225     0.1366 </r>
       <r>   -18.4111     2.7173     0.3480 </r>
       <r>   -18.3333     4.4956     0.6978 </r>
       <r>   -18.2555     5.5368     1.1285 </r>
       <r>   -18.1777     5.0765     1.5235 </r>
       <r>   -18.0999     3.4649     1.7931 </r>
       <r>   -18.0221     1.7604     1.9301 </r>
       <r>   -17.9443     0.6656     1.9818 </r>
       <r>   -17.8665     0.1873     1.9964 </r>
       <r>   -17.7886     0.0392     1.9995 </r>
       <r>   -17.7108     0.0061     1.9999 </r>
       <r>   -17.6330     0.0007     2.0000 </r>
       <r>   -17.5552     0.0001     2.0000 </r>
       <r>   -17.4774     0.0000     2.0000 </r>
       <r>   -17.3996     0.0000     2.0000 </r>
       <r>   -17.3218     0.0000     2.0000 </r>
       <r>   -17.2440     0.0000     2.0000 </r>
       <r>   -17.1662     0.0000     2.0000 </r>
       <r>   -17.0884     0.0000     2.0000 </r>
       <r>   -17.0106     0.0000     2.0000 </r>
       <r>   -16.9328     0.0000     2.0000 </r>
       <r>   -16.8550     0.0000     2.0000 </r>
       <r>   -16.7772     0.0000     2.0000 </r>
       <r>   -16.6994     0.0000     2.0000 </r>
       <r>   -16.6216     0.0000     2.0000 </r>
       <r>   -16.5438     0.0000     2.0000 </r>
       <r>   -16.4660     0.0000     2.0000 </r>
       <r>   -16.3882     0.0000     2.0000 </r>
       <r>   -16.3104     0.0000     2.0000 </r>
       <r>   -16.2326     0.0000     2.0000 </r>
       <r>   -16.1548     0.0000     2.0000 </r>
       <r>   -16.0770     0.0000     2.0000 </r>
       <r>   -15.9992     0.0000     2.0000 </r>
       <r>   -15.9214     0.0000     2.0000 </r>
       <r>   -15.8436     0.0000     2.0000 </r>
       <r>   -15.7658     0.0000     2.0000 </r>
       <r>   -15.6880     0.0000     2.0000 </r>
       <r>   -15.6102     0.0000     2.0000 </r>
       <r>   -15.5324     0.0000     2.0000 </r>
       <r>   -15.4546     0.0000     2.0000 </r>
       <r>   -15.3767     0.0000     2.0000 </r>
       <r>   -15.2989     0.0000     2.0000 </r>
       <r>   -15.2211     0.0000     2.0000 </r>
       <r>   -15.1433     0.0000     2.0000 </r>
       <r>   -15.0655     0.0000     2.0000 </r>
       <r>   -14.9877     0.0000     2.0000 </r>
       <r>   -14.9099     0.0000     2.0000 </r>
       <r>   -14.8321     0.0000     2.0000 </r>
       <r>   -14.7543     0.0000     2.0000 </r>
       <r>   -14.6765     0.0000     2.0000 </r>
       <r>   -14.5987     0.0000     2.0000 </r>
       <r>   -14.5209     0.0000     2.0000 </r>
       <r>   -14.4431     0.0000     2.0000 </r>
       <r>   -14.3653     0.0000     2.0000 </r>
       <r>   -14.2875     0.0005     2.0000 </r>
       <r>   -14.2097     0.0042     2.0004 </r>
       <r>   -14.1319     0.0285     2.0026 </r>
       <r>   -14.0541     0.1438     2.0138 </r>
       <r>   -13.9763     0.5395     2.0557 </r>
       <r>   -13.8985     1.5060     2.1729 </r>
       <r>   -13.8207     3.1290     2.4164 </r>
       <r>   -13.7429     4.8391     2.7929 </r>
       <r>   -13.6651     5.5711     3.2263 </r>
       <r>   -13.5873     4.7748     3.5978 </r>
       <r>   -13.5095     3.0463     3.8348 </r>
       <r>   -13.4317     1.4467     3.9474 </r>
       <r>   -13.3539     0.5113     3.9872 </r>
       <r>   -13.2761     0.1345     3.9976 </r>
       <r>   -13.1983     0.0263     3.9997 </r>
       <r>   -13.1205     0.0038     4.0000 </r>
       <r>   -13.0427     0.0004     4.0000 </r>
       <r>   -12.9648     0.0000     4.0000 </r>
       <r>   -12.8870     0.0000     4.0000 </r>
       <r>   -12.8092     0.0000     4.0000 </r>
       <r>   -12.7314     0.0000     4.0000 </r>
       <r>   -12.6536     0.0000     4.0000 </r>
       <r>   -12.5758     0.0000     4.0000 </r>
       <r>   -12.4980     0.0000     4.0000 </r>
       <r>   -12.4202     0.0004     4.0000 </r>
       <r>   -12.3424     0.0034     4.0003 </r>
       <r>   -12.2646     0.0236     4.0021 </r>
       <r>   -12.1868     0.1229     4.0117 </r>
       <r>   -12.1090     0.4758     4.0487 </r>
       <r>   -12.0312     1.3703     4.1553 </r>
       <r>   -11.9534     2.9373     4.3839 </r>
       <r>   -11.8756     4.6863     4.7485 </r>
       <r>   -11.7978     5.5659     5.1815 </r>
       <r>   -11.7200     4.9212     5.5644 </r>
       <r>   -11.6422     3.2391     5.8164 </r>
       <r>   -11.5644     1.5870     5.9399 </r>
       <r>   -11.4866     0.5787     5.9849 </r>
       <r>   -11.4088     0.1570     5.9971 </r>
       <r>   -11.3310     0.0317     5.9996 </r>
       <r>   -11.2532     0.0048     6.0000 </r>
       <r>   -11.1754     0.0005     6.0000 </r>
       <r>   -11.0976     0.0000     6.0000 </r>
       <r>   -11.0198     0.0000     6.0000 </r>
       <r>   -10.9420     0.0000     6.0000 </r>
       <r>   -10.8642     0.0000     6.0000 </r>
       <r>   -10.7864     0.0000     6.0000 </r>
       <r>   -10.7086     0.0000     6.0000 </r>
       <r>   -10.6308     0.0000     6.0000 </r>
       <r>   -10.5529     0.0000     6.0000 </r>
       <r>   -10.4751     0.0000     6.0000 </r>
       <r>   -10.3973     0.0000     6.0000 </r>
       <r>   -10.3195     0.0000     6.0000 </r>
       <r>   -10.2417     0.0000     6.0000 </r>
       <r>   -10.1639     0.0000     6.0000 </r>
       <r>   -10.0861     0.0000     6.0000 </r>
       <r>   -10.0083     0.0000     6.0000 </r>
       <r>    -9.9305     0.0000     6.0000 </r>
       <r>    -9.8527     0.0000     6.0000 </r>
       <r>    -9.7749     0.0000     6.0000 </r>
       <r>    -9.6971     0.0000     6.0000 </r>
       <r>    -9.6193     0.0000     6.0000 </r>
       <r>    -9.5415     0.0000     6.0000 </r>
       <r>    -9.4637     0.0000     6.0000 </r>
       <r>    -9.3859     0.0000     6.0000 </r>
       <r>    -9.3081     0.0000     6.0000 </r>
       <r>    -9.2303     0.0000     6.0000 </r>
       <r>    -9.1525     0.0000     6.0000 </r>
       <r>    -9.0747     0.0000     6.0000 </r>
       <r>    -8.9969     0.0000     6.0000 </r>
       <r>    -8.9191     0.0000     6.0000 </r>
       <r>    -8.8413     0.0000     6.0000 </r>
       <r>    -8.7635     0.0000     6.0000 </r>
       <r>    -8.6857     0.0000     6.0000 </r>
       <r>    -8.6079     0.0000     6.0000 </r>
       <r>    -8.5301     0.0000     6.0000 </r>
       <r>    -8.4523     0.0000     6.0000 </r>
       <r>    -8.3745     0.0000     6.0000 </r>
       <r>    -8.2967     0.0000     6.0000 </r>
       <r>    -8.2189     0.0000     6.0000 </r>
       <r>    -8.1410     0.0000     6.0000 </r>
       <r>    -8.0632     0.0000     6.0000 </r>
       <r>    -7.9854     0.0000     6.0000 </r>
       <r>    -7.9076     0.0000     6.0000 </r>
       <r>    -7.8298     0.0000     6.0000 </r>
       <r>    -7.7520     0.0000     6.0000 </r>
       <r>    -7.6742     0.0000     6.0000 </r>
       <r>    -7.5964     0.0000     6.0000 </r>
       <r>    -7.5186     0.0001     6.0000 </r>
       <r>    -7.4408     0.0009     6.0001 </r>
       <r>    -7.3630     0.0086     6.0008 </r>
       <r>    -7.2852     0.0582     6.0053 </r>
       <r>    -7.2074     0.2927     6.0281 </r>
       <r>    -7.1296     1.0944     6.1132 </r>
       <r>    -7.0518     3.0442     6.3501 </r>
       <r>    -6.9740     6.3024     6.8404 </r>
       <r>    -6.8962     9.7120     7.5960 </r>
       <r>    -6.8184    11.1411     8.4628 </r>
       <r>    -6.7406     9.5144     9.2031 </r>
       <r>    -6.6628     6.0486     9.6737 </r>
       <r>    -6.5850     2.8622     9.8964 </r>
       <r>    -6.5072     1.0080     9.9748 </r>
       <r>    -6.4294     0.2641     9.9953 </r>
       <r>    -6.3516     0.0515     9.9994 </r>
       <r>    -6.2738     0.0075     9.9999 </r>
       <r>    -6.1960     0.0008    10.0000 </r>
       <r>    -6.1182     0.0001    10.0000 </r>
       <r>    -6.0404     0.0000    10.0000 </r>
       <r>    -5.9626     0.0000    10.0000 </r>
       <r>    -5.8848     0.0000    10.0000 </r>
       <r>    -5.8070     0.0000    10.0000 </r>
       <r>    -5.7291     0.0000    10.0000 </r>
       <r>    -5.6513     0.0000    10.0000 </r>
       <r>    -5.5735     0.0000    10.0000 </r>
       <r>    -5.4957     0.0000    10.0000 </r>
       <r>    -5.4179     0.0000    10.0000 </r>
       <r>    -5.3401     0.0000    10.0000 </r>
       <r>    -5.2623     0.0000    10.0000 </r>
       <r>    -5.1845     0.0000    10.0000 </r>
       <r>    -5.1067     0.0000    10.0000 </r>
       <r>    -5.0289     0.0000    10.0000 </r>
       <r>    -4.9511     0.0000    10.0000 </r>
       <r>    -4.8733     0.0000    10.0000 </r>
       <r>    -4.7955     0.0000    10.0000 </r>
       <r>    -4.7177     0.0000    10.0000 </r>
       <r>    -4.6399     0.0000    10.0000 </r>
       <r>    -4.5621     0.0000    10.0000 </r>
       <r>    -4.4843     0.0000    10.0000 </r>
       <r>    -4.4065     0.0000    10.0000 </r>
       <r>    -4.3287     0.0000    10.0000 </r>
       <r>    -4.2509     0.0000    10.0000 </r>
       <r>    -4.1731     0.0000    10.0000 </r>
       <r>    -4.0953     0.0000    10.0000 </r>
       <r>    -4.0175     0.0000    10.0000 </r>
       <r>    -3.9397     0.0000    10.0000 </r>
       <r>    -3.8619     0.0000    10.0000 </r>
       <r>    -3.7841     0.0000    10.0000 </r>
       <r>    -3.7063     0.0000    10.0000 </r>
       <r>    -3.6285     0.0000    10.0000 </r>
       <r>    -3.5507     0.0000    10.0000 </r>
       <r>    -3.4729     0.0000    10.0000 </r>
       <r>    -3.3951     0.0000    10.0000 </r>
       <r>    -3.3172     0.0000    10.0000 </r>
       <r>    -3.2394     0.0000    10.0000 </r>
       <r>    -3.1616     0.0000    10.0000 </r>
       <r>    -3.0838     0.0000    10.0000 </r>
       <r>    -3.0060     0.0000    10.0000 </r>
       <r>    -2.9282     0.0000    10.0000 </r>
       <r>    -2.8504     0.0000    10.0000 </r>
       <r>    -2.7726     0.0000    10.0000 </r>
       <r>    -2.6948     0.0000    10.0000 </r>
       <r>    -2.6170     0.0000    10.0000 </r>
       <r>    -2.5392     0.0000    10.0000 </r>
       <r>    -2.4614     0.0000    10.0000 </r>
       <r>    -2.3836     0.0000    10.0000 </r>
       <r>    -2.3058     0.0000    10.0000 </r>
       <r>    -2.2280     0.0000    10.0000 </r>
       <r>    -2.1502     0.0000    10.0000 </r>
       <r>    -2.0724     0.0000    10.0000 </r>
       <r>    -1.9946     0.0000    10.0000 </r>
       <r>    -1.9168     0.0000    10.0000 </r>
       <r>    -1.8390     0.0000    10.0000 </r>
       <r>    -1.7612     0.0000    10.0000 </r>
       <r>    -1.6834     0.0000    10.0000 </r>
       <r>    -1.6056     0.0000    10.0000 </r>
       <r>    -1.5278     0.0000    10.0000 </r>
       <r>    -1.4500     0.0000    10.0000 </r>
       <r>    -1.3722     0.0000    10.0000 </r>
       <r>    -1.2944     0.0000    10.0000 </r>
       <r>    -1.2166     0.0000    10.0000 </r>
       <r>    -1.1388     0.0000    10.0000 </r>
       <r>    -1.0610     0.0000    10.0000 </r>
       <r>    -0.9832     0.0002    10.0000 </r>
       <r>    -0.9053     0.0023    10.0002 </r>
       <r>    -0.8275     0.0169    10.0015 </r>
       <r>    -0.7497     0.0927    10.0087 </r>
       <r>    -0.6719     0.3792    10.0382 </r>
       <r>    -0.5941     1.1557    10.1281 </r>
       <r>    -0.5163     2.6327    10.3330 </r>
       <r>    -0.4385     4.5330    10.6857 </r>
       <r>    -0.3607     6.1065    11.1608 </r>
       <r>    -0.2829     7.0566    11.7098 </r>
       <r>    -0.2051     8.1486    12.3438 </r>
       <r>    -0.1273     9.9963    13.1215 </r>
       <r>    -0.0495    11.5172    14.0176 </r>
       <r>     0.0283    10.8734    14.8636 </r>
       <r>     0.1061     7.8866    15.4772 </r>
       <r>     0.1839     4.2987    15.8116 </r>
       <r>     0.2617     1.7488    15.9477 </r>
       <r>     0.3395     0.5298    15.9889 </r>
       <r>     0.4173     0.1195    15.9982 </r>
       <r>     0.4951     0.0207    15.9998 </r>
       <r>     0.5729     0.0086    16.0005 </r>
       <r>     0.6507     0.0394    16.0036 </r>
       <r>     0.7285     0.1873    16.0182 </r>
       <r>     0.8063     0.6656    16.0699 </r>
       <r>     0.8841     1.7604    16.2069 </r>
       <r>     0.9619     3.4649    16.4765 </r>
       <r>     1.0397     5.0765    16.8715 </r>
       <r>     1.1175     5.5368    17.3022 </r>
       <r>     1.1953     4.4956    17.6520 </r>
       <r>     1.2731     2.7173    17.8634 </r>
       <r>     1.3509     1.2225    17.9585 </r>
       <r>     1.4287     0.4093    17.9904 </r>
       <r>     1.5066     0.1020    17.9983 </r>
       <r>     1.5844     0.0189    17.9998 </r>
       <r>     1.6622     0.0026    18.0000 </r>
       <r>     1.7400     0.0003    18.0000 </r>
       <r>     1.8178     0.0000    18.0000 </r>
       <r>     1.8956     0.0000    18.0000 </r>
       <r>     1.9734     0.0000    18.0000 </r>
       <r>     2.0512     0.0000    18.0000 </r>
       <r>     2.1290     0.0000    18.0000 </r>
       <r>     2.2068     0.0000    18.0000 </r>
       <r>     2.2846     0.0000    18.0000 </r>
       <r>     2.3624     0.0000    18.0000 </r>
       <r>     2.4402     0.0000    18.0000 </r>
       <r>     2.5180     0.0000    18.0000 </r>
       <r>     2.5958     0.0000    18.0000 </r>
       <r>     2.6736     0.0000    18.0000 </r>
       <r>     2.7514     0.0000    18.0000 </r>
       <r>     2.8292     0.0000    18.0000 </r>
       <r>     2.9070     0.0000    18.0000 </r>
       <r>     2.9848     0.0000    18.0000 </r>
       <r>     3.0626     0.0000    18.0000 </r>
      </set>
     </set>
    </array>
   </total>
  </dos>
 </calculation>
 <structure name="finalpos" >
  <crystal>
   <varray name="basis" >
    <v>       8.00000000       0.00000000       0.00000000 </v>
    <v>       0.00000000       8.00000000       0.00000000 </v>
    <v>       0.00000000       0.00000000       8.00000000 </v>
   </varray>
   <i name="volume">    512.00000000 </i>
   <varray name="rec_basis" >
    <v>       0.12500000       0.00000000       0.00000000 </v>
    <v>       0.00000000       0.12500000       0.00000000 </v>
    <v>       0.00000000       0.00000000       0.12500000 </v>
   </varray>
  </crystal>
  <varray name="positions" >
   <v>       0.00000000       0.00000000       0.79065056 </v>
   <v>       0.00000000       0.00000000       0.20934944 </v>
   <v>       0.00000000       0.00000000       0.07546059 </v>
   <v>       0.00000000       0.00000000       0.92453941 </v>
  </varray>
 </structure>
</modeling>
