   5   5   0   0
  0.1024000E+03  0.8000000E-09  0.8000000E-09  0.8000000E-09  0.5000000E-15
  1.000000000000000E-004
  CAR 
 unknown system                          
      3.96243052    -36.09349365  301     -8.98689871      1.00000000
    -36.093  0.0000E+00  0.0000E+00
    -35.960  0.0000E+00  0.0000E+00
    -35.826  0.0000E+00  0.0000E+00
    -35.693  0.0000E+00  0.0000E+00
    -35.559  0.0000E+00  0.0000E+00
    -35.426  0.0000E+00  0.0000E+00
    -35.292  0.0000E+00  0.0000E+00
    -35.159  0.3709E-13  0.4952E-14
    -35.025  0.3310E-10  0.4424E-11
    -34.892  0.1234E-07  0.1652E-08
    -34.758  0.1928E-05  0.2591E-06
    -34.625  0.1270E-03  0.1721E-04
    -34.491  0.3552E-02  0.4914E-03
    -34.358  0.4253E-01  0.6169E-02
    -34.224  0.2199E+00  0.3553E-01
    -34.091  0.4947E+00  0.1016E+00
    -33.957  0.4862E+00  0.1665E+00
    -33.824  0.2087E+00  0.1944E+00
    -33.690  0.3898E-01  0.1996E+00
    -33.557  0.3142E-02  0.2000E+00
    -33.423  0.1084E-03  0.2000E+00
    -33.290  0.1588E-05  0.2000E+00
    -33.156  0.9799E-08  0.2000E+00
    -33.023  0.2534E-10  0.2000E+00
    -32.889  0.2727E-13  0.2000E+00
    -32.755  0.0000E+00  0.2000E+00
    -32.622  0.0000E+00  0.2000E+00
    -32.488  0.7484E-14  0.2000E+00
    -32.355  0.9189E-11  0.2000E+00
    -32.221  0.4711E-08  0.2000E+00
    -32.088  0.1011E-05  0.2000E+00
    -31.954  0.9119E-04  0.2000E+00
    -31.821  0.3484E-02  0.2005E+00
    -31.687  0.5681E-01  0.2081E+00
    -31.554  0.3988E+00  0.2613E+00
    -31.420  0.1215E+01  0.4235E+00
    -31.287  0.1615E+01  0.6392E+00
    -31.153  0.9389E+00  0.7646E+00
    -31.020  0.2378E+00  0.7964E+00
    -30.886  0.2608E-01  0.7998E+00
    -30.753  0.1228E-02  0.8000E+00
    -30.619  0.2461E-04  0.8000E+00
    -30.486  0.2084E-06  0.8000E+00
    -30.352  0.7410E-09  0.8000E+00
    -30.219  0.1101E-11  0.8000E+00
    -30.085  0.9978E-15  0.8000E+00
    -29.952  0.0000E+00  0.8000E+00
    -29.818  0.0000E+00  0.8000E+00
    -29.685  0.0000E+00  0.8000E+00
    -29.551  0.0000E+00  0.8000E+00
    -29.418  0.0000E+00  0.8000E+00
    -29.284  0.0000E+00  0.8000E+00
    -29.150  0.0000E+00  0.8000E+00
    -29.017  0.0000E+00  0.8000E+00
    -28.883  0.0000E+00  0.8000E+00
    -28.750  0.0000E+00  0.8000E+00
    -28.616  0.0000E+00  0.8000E+00
    -28.483  0.0000E+00  0.8000E+00
    -28.349  0.0000E+00  0.8000E+00
    -28.216  0.0000E+00  0.8000E+00
    -28.082  0.0000E+00  0.8000E+00
    -27.949  0.0000E+00  0.8000E+00
    -27.815  0.0000E+00  0.8000E+00
    -27.682  0.0000E+00  0.8000E+00
    -27.548  0.0000E+00  0.8000E+00
    -27.415  0.0000E+00  0.8000E+00
    -27.281  0.0000E+00  0.8000E+00
    -27.148  0.0000E+00  0.8000E+00
    -27.014  0.0000E+00  0.8000E+00
    -26.881  0.0000E+00  0.8000E+00
    -26.747  0.0000E+00  0.8000E+00
    -26.614  0.0000E+00  0.8000E+00
    -26.480  0.0000E+00  0.8000E+00
    -26.347  0.0000E+00  0.8000E+00
    -26.213  0.0000E+00  0.8000E+00
    -26.080  0.0000E+00  0.8000E+00
    -25.946  0.0000E+00  0.8000E+00
    -25.812  0.0000E+00  0.8000E+00
    -25.679  0.0000E+00  0.8000E+00
    -25.545  0.0000E+00  0.8000E+00
    -25.412  0.0000E+00  0.8000E+00
    -25.278  0.0000E+00  0.8000E+00
    -25.145  0.0000E+00  0.8000E+00
    -25.011  0.0000E+00  0.8000E+00
    -24.878  0.0000E+00  0.8000E+00
    -24.744  0.0000E+00  0.8000E+00
    -24.611  0.0000E+00  0.8000E+00
    -24.477  0.0000E+00  0.8000E+00
    -24.344  0.0000E+00  0.8000E+00
    -24.210  0.0000E+00  0.8000E+00
    -24.077  0.0000E+00  0.8000E+00
    -23.943  0.0000E+00  0.8000E+00
    -23.810  0.0000E+00  0.8000E+00
    -23.676  0.0000E+00  0.8000E+00
    -23.543  0.0000E+00  0.8000E+00
    -23.409  0.0000E+00  0.8000E+00
    -23.276  0.0000E+00  0.8000E+00
    -23.142  0.0000E+00  0.8000E+00
    -23.009  0.0000E+00  0.8000E+00
    -22.875  0.0000E+00  0.8000E+00
    -22.742  0.0000E+00  0.8000E+00
    -22.608  0.0000E+00  0.8000E+00
    -22.474  0.0000E+00  0.8000E+00
    -22.341  0.0000E+00  0.8000E+00
    -22.207  0.0000E+00  0.8000E+00
    -22.074  0.0000E+00  0.8000E+00
    -21.940  0.0000E+00  0.8000E+00
    -21.807  0.0000E+00  0.8000E+00
    -21.673  0.0000E+00  0.8000E+00
    -21.540  0.0000E+00  0.8000E+00
    -21.406  0.0000E+00  0.8000E+00
    -21.273  0.0000E+00  0.8000E+00
    -21.139  0.0000E+00  0.8000E+00
    -21.006  0.0000E+00  0.8000E+00
    -20.872  0.0000E+00  0.8000E+00
    -20.739  0.0000E+00  0.8000E+00
    -20.605  0.0000E+00  0.8000E+00
    -20.472  0.0000E+00  0.8000E+00
    -20.338  0.0000E+00  0.8000E+00
    -20.205  0.0000E+00  0.8000E+00
    -20.071  0.0000E+00  0.8000E+00
    -19.938  0.0000E+00  0.8000E+00
    -19.804  0.0000E+00  0.8000E+00
    -19.671  0.0000E+00  0.8000E+00
    -19.537  0.0000E+00  0.8000E+00
    -19.404  0.0000E+00  0.8000E+00
    -19.270  0.0000E+00  0.8000E+00
    -19.136  0.0000E+00  0.8000E+00
    -19.003  0.1389E-13  0.8000E+00
    -18.869  0.1397E-10  0.8000E+00
    -18.736  0.5857E-08  0.8000E+00
    -18.602  0.1028E-05  0.8000E+00
    -18.469  0.7604E-04  0.8000E+00
    -18.335  0.2385E-02  0.8003E+00
    -18.202  0.3199E-01  0.8046E+00
    -18.068  0.1851E+00  0.8293E+00
    -17.935  0.4655E+00  0.8915E+00
    -17.801  0.5113E+00  0.9597E+00
    -17.668  0.2454E+00  0.9925E+00
    -17.534  0.5128E-01  0.9994E+00
    -17.401  0.4630E-02  0.1000E+01
    -17.267  0.1791E-03  0.1000E+01
    -17.134  0.2945E-05  0.1000E+01
    -17.000  0.2042E-07  0.1000E+01
    -16.867  0.5938E-10  0.1000E+01
    -16.733  0.7217E-13  0.1000E+01
    -16.600  0.0000E+00  0.1000E+01
    -16.466  0.1746E-14  0.1000E+01
    -16.333  0.2674E-11  0.1000E+01
    -16.199  0.1608E-08  0.1000E+01
    -16.066  0.4044E-06  0.1000E+01
    -15.932  0.4273E-04  0.1000E+01
    -15.798  0.1909E-02  0.1000E+01
    -15.665  0.3634E-01  0.1005E+01
    -15.531  0.2974E+00  0.1045E+01
    -15.398  0.1055E+01  0.1186E+01
    -15.264  0.1631E+01  0.1403E+01
    -15.131  0.1103E+01  0.1551E+01
    -14.997  0.3252E+00  0.1594E+01
    -14.864  0.4159E-01  0.1600E+01
    -14.730  0.2287E-02  0.1600E+01
    -14.597  0.5360E-04  0.1600E+01
    -14.463  0.5316E-06  0.1600E+01
    -14.330  0.2216E-08  0.1600E+01
    -14.196  0.3862E-11  0.1600E+01
    -14.063  0.2993E-14  0.1600E+01
    -13.929  0.0000E+00  0.1600E+01
    -13.796  0.0000E+00  0.1600E+01
    -13.662  0.0000E+00  0.1600E+01
    -13.529  0.0000E+00  0.1600E+01
    -13.395  0.0000E+00  0.1600E+01
    -13.262  0.0000E+00  0.1600E+01
    -13.128  0.0000E+00  0.1600E+01
    -12.995  0.0000E+00  0.1600E+01
    -12.861  0.1663E-15  0.1600E+01
    -12.728  0.2957E-12  0.1600E+01
    -12.594  0.2230E-09  0.1600E+01
    -12.460  0.7021E-07  0.1600E+01
    -12.327  0.9277E-05  0.1600E+01
    -12.193  0.5173E-03  0.1600E+01
    -12.060  0.1227E-01  0.1602E+01
    -11.926  0.1248E+00  0.1618E+01
    -11.793  0.5490E+00  0.1692E+01
    -11.659  0.1054E+01  0.1832E+01
    -11.526  0.9274E+00  0.1956E+01
    -11.392  0.6729E+00  0.2046E+01
    -11.259  0.1196E+01  0.2206E+01
    -11.125  0.1632E+01  0.2424E+01
    -10.992  0.1013E+01  0.2559E+01
    -10.858  0.2745E+00  0.2595E+01
    -10.725  0.3225E-01  0.2600E+01
    -10.591  0.1713E-02  0.2600E+01
    -10.458  0.3325E-02  0.2600E+01
    -10.324  0.5446E-01  0.2608E+01
    -10.191  0.3880E+00  0.2660E+01
    -10.057  0.1200E+01  0.2820E+01
     -9.924  0.1619E+01  0.3036E+01
     -9.790  0.9549E+00  0.3163E+01
     -9.657  0.2455E+00  0.3196E+01
     -9.523  0.2733E-01  0.3200E+01
     -9.390  0.1306E-02  0.3200E+01
     -9.256  0.2659E-04  0.3200E+01
     -9.123  0.2286E-06  0.3200E+01
     -8.989  0.8256E-09  0.3200E+01
     -8.855  0.1245E-11  0.3200E+01
     -8.722  0.9978E-15  0.3200E+01
     -8.588  0.0000E+00  0.3200E+01
     -8.455  0.0000E+00  0.3200E+01
     -8.321  0.0000E+00  0.3200E+01
     -8.188  0.0000E+00  0.3200E+01
     -8.054  0.0000E+00  0.3200E+01
     -7.921  0.0000E+00  0.3200E+01
     -7.787  0.0000E+00  0.3200E+01
     -7.654  0.0000E+00  0.3200E+01
     -7.520  0.0000E+00  0.3200E+01
     -7.387  0.0000E+00  0.3200E+01
     -7.253  0.0000E+00  0.3200E+01
     -7.120  0.0000E+00  0.3200E+01
     -6.986  0.0000E+00  0.3200E+01
     -6.853  0.0000E+00  0.3200E+01
     -6.719  0.0000E+00  0.3200E+01
     -6.586  0.0000E+00  0.3200E+01
     -6.452  0.0000E+00  0.3200E+01
     -6.319  0.0000E+00  0.3200E+01
     -6.185  0.0000E+00  0.3200E+01
     -6.052  0.0000E+00  0.3200E+01
     -5.918  0.0000E+00  0.3200E+01
     -5.785  0.0000E+00  0.3200E+01
     -5.651  0.0000E+00  0.3200E+01
     -5.517  0.0000E+00  0.3200E+01
     -5.384  0.0000E+00  0.3200E+01
     -5.250  0.0000E+00  0.3200E+01
     -5.117  0.0000E+00  0.3200E+01
     -4.983  0.0000E+00  0.3200E+01
     -4.850  0.0000E+00  0.3200E+01
     -4.716  0.0000E+00  0.3200E+01
     -4.583  0.0000E+00  0.3200E+01
     -4.449  0.0000E+00  0.3200E+01
     -4.316  0.0000E+00  0.3200E+01
     -4.182  0.0000E+00  0.3200E+01
     -4.049  0.0000E+00  0.3200E+01
     -3.915  0.0000E+00  0.3200E+01
     -3.782  0.0000E+00  0.3200E+01
     -3.648  0.0000E+00  0.3200E+01
     -3.515  0.0000E+00  0.3200E+01
     -3.381  0.0000E+00  0.3200E+01
     -3.248  0.0000E+00  0.3200E+01
     -3.114  0.0000E+00  0.3200E+01
     -2.981  0.0000E+00  0.3200E+01
     -2.847  0.0000E+00  0.3200E+01
     -2.714  0.0000E+00  0.3200E+01
     -2.580  0.0000E+00  0.3200E+01
     -2.447  0.0000E+00  0.3200E+01
     -2.313  0.0000E+00  0.3200E+01
     -2.179  0.0000E+00  0.3200E+01
     -2.046  0.0000E+00  0.3200E+01
     -1.912  0.0000E+00  0.3200E+01
     -1.779  0.0000E+00  0.3200E+01
     -1.645  0.0000E+00  0.3200E+01
     -1.512  0.1480E-13  0.3200E+01
     -1.378  0.1478E-10  0.3200E+01
     -1.245  0.6150E-08  0.3200E+01
     -1.111  0.1072E-05  0.3200E+01
     -0.978  0.7865E-04  0.3200E+01
     -0.844  0.2449E-02  0.3200E+01
     -0.711  0.3260E-01  0.3205E+01
     -0.577  0.1873E+00  0.3230E+01
     -0.444  0.4676E+00  0.3292E+01
     -0.310  0.5099E+00  0.3360E+01
     -0.177  0.2430E+00  0.3393E+01
     -0.043  0.5040E-01  0.3399E+01
      0.090  0.4517E-02  0.3400E+01
      0.224  0.1735E-03  0.3400E+01
      0.357  0.2830E-05  0.3400E+01
      0.491  0.1948E-07  0.3400E+01
      0.624  0.5622E-10  0.3400E+01
      0.758  0.6985E-13  0.3400E+01
      0.891  0.2680E-11  0.3400E+01
      1.025  0.1542E-08  0.3400E+01
      1.159  0.3722E-06  0.3400E+01
      1.292  0.3799E-04  0.3400E+01
      1.426  0.1656E-02  0.3400E+01
      1.559  0.3117E-01  0.3404E+01
      1.693  0.2574E+00  0.3439E+01
      1.826  0.9466E+00  0.3565E+01
      1.960  0.1574E+01  0.3775E+01
      2.093  0.1195E+01  0.3935E+01
      2.227  0.4167E+00  0.3990E+01
      2.360  0.6648E-01  0.3999E+01
      2.494  0.4805E-02  0.4000E+01
      2.627  0.1549E-03  0.4000E+01
      2.761  0.2191E-05  0.4000E+01
      2.894  0.1338E-07  0.4000E+01
      3.028  0.3483E-10  0.4000E+01
      3.161  0.3842E-13  0.4000E+01
      3.295  0.0000E+00  0.4000E+01
      3.428  0.0000E+00  0.4000E+01
      3.562  0.0000E+00  0.4000E+01
      3.695  0.0000E+00  0.4000E+01
      3.829  0.0000E+00  0.4000E+01
      3.962  0.0000E+00  0.4000E+01
