    5    5   10    1
  0.1024000E+03  0.8000000E-09  0.8000000E-09  0.8000000E-09  0.5000000E-15
  1.000000000000000E-004
  CAR 
 unknown system                          
   32    1   20
 
  0.0000000E+00  0.0000000E+00  0.0000000E+00  0.1000000E+01
   1      -34.093494
   2      -31.374334
   3      -31.374334
   4      -31.374334
   5      -17.919660
   6      -15.327573
   7      -15.327573
   8      -15.327573
   9      -11.688024
  10      -11.688024
  11      -11.201934
  12      -11.201934
  13      -11.201934
  14      -10.008796
  15      -10.008796
  16      -10.008796
  17       -0.429736
  18        1.888681
  19        1.888681
  20        1.962431
