       N       E                     dE             d eps       ncg     rms          rms(c)
DAV:   1     0.281700909150E+03    0.28170E+03   -0.94928E+03    56   0.737E+02
DAV:   2     0.183784940751E+02   -0.26332E+03   -0.25723E+03    64   0.227E+02
DAV:   3    -0.264964631362E+02   -0.44875E+02   -0.44784E+02    44   0.114E+02
DAV:   4    -0.272316497521E+02   -0.73519E+00   -0.73445E+00    48   0.154E+01
DAV:   5    -0.272516816260E+02   -0.20032E-01   -0.20022E-01    48   0.223E+00    0.808E+00
DAV:   6    -0.260923248330E+02    0.11594E+01   -0.35281E+00    48   0.128E+01    0.457E+00
DAV:   7    -0.260555584642E+02    0.36766E-01   -0.45191E-01    48   0.548E+00    0.205E+00
DAV:   8    -0.260945550593E+02   -0.38997E-01   -0.54516E-02    48   0.196E+00    0.278E-01
DAV:   9    -0.260958772883E+02   -0.13222E-02   -0.92225E-03    48   0.687E-01    0.112E-01
DAV:  10    -0.260959182338E+02   -0.40945E-04   -0.39815E-04    44   0.177E-01
   1 F= -.26095918E+02 E0= -.26095918E+02  d E =-.260959E+02
       N       E                     dE             d eps       ncg     rms          rms(c)
DAV:   1    -0.259160141194E+02    0.17986E+00   -0.10193E+02    48   0.895E+01    0.271E+00
DAV:   2    -0.260617189670E+02   -0.14570E+00   -0.23987E+00    48   0.122E+01    0.101E+00
DAV:   3    -0.260614977196E+02    0.22125E-03   -0.30587E-02    40   0.160E+00    0.558E-01
DAV:   4    -0.260815574239E+02   -0.20060E-01   -0.29222E-02    48   0.124E+00    0.204E-01
DAV:   5    -0.260836893687E+02   -0.21319E-02   -0.17452E-02    48   0.897E-01    0.175E-01
DAV:   6    -0.260834876191E+02    0.20175E-03   -0.27841E-03    44   0.423E-01    0.361E-02
DAV:   7    -0.260837753906E+02   -0.28777E-03   -0.48675E-04    40   0.130E-01    0.168E-02
DAV:   8    -0.260838707581E+02   -0.95367E-04   -0.26895E-05    32   0.358E-02
   2 F= -.26083871E+02 E0= -.26083871E+02  d E =0.120475E-01
       N       E                     dE             d eps       ncg     rms          rms(c)
DAV:   1    -0.261128656221E+02   -0.29090E-01   -0.28613E+01    40   0.488E+01    0.129E+00
DAV:   2    -0.261490627920E+02   -0.36197E-01   -0.56046E-01    48   0.565E+00    0.538E-01
DAV:   3    -0.261513009133E+02   -0.22381E-02   -0.73864E-03    44   0.797E-01    0.274E-01
DAV:   4    -0.261586496200E+02   -0.73487E-02   -0.78113E-03    48   0.635E-01    0.764E-02
DAV:   5    -0.261587846381E+02   -0.13502E-03   -0.63752E-04    44   0.188E-01    0.452E-02
DAV:   6    -0.261591337900E+02   -0.34915E-03   -0.47770E-04    40   0.133E-01    0.269E-02
DAV:   7    -0.261591467425E+02   -0.12952E-04   -0.40139E-05    32   0.512E-02
   3 F= -.26159147E+02 E0= -.26159147E+02  d E =-.632285E-01
