<?xml version="1.0" encoding="ISO-8859-1"?>
<modeling>
 <generator>
  <i name="program" type="string">vasp </i>
  <i name="version" type="string">5.2.12  </i>
  <i name="subversion" type="string">11Nov11 complex                                                      parallel </i>
  <i name="platform" type="string">LinuxIFC </i>
  <i name="date" type="string">2012 11 03 </i>
  <i name="time" type="string">02:53:42 </i>
 </generator>
 <incar>
  <i type="string" name="PREC">normal</i>
  <i type="int" name="IBRION">     2</i>
  <i type="int" name="NSW">    10</i>
  <i name="ENCUT">    300.00000000</i>
  <i type="int" name="ISMEAR">     0</i>
 </incar>
 <kpoints>
  <generation param="Monkhorst-Pack">
   <v type="int" name="divisions">       1        1        1 </v>
   <v name="usershift">      0.00000000       0.00000000       0.00000000 </v>
   <v name="genvec1">      1.00000000       0.00000000       0.00000000 </v>
   <v name="genvec2">      0.00000000       1.00000000       0.00000000 </v>
   <v name="genvec3">      0.00000000       0.00000000       1.00000000 </v>
   <v name="shift">      0.00000000       0.00000000       0.00000000 </v>
  </generation>
  <varray name="kpointlist" >
   <v>       0.00000000       0.00000000       0.00000000 </v>
  </varray>
  <varray name="weights" >
   <v>       1.00000000 </v>
  </varray>
 </kpoints>
 <parameters>
  <separator name="general" >
   <i type="string" name="SYSTEM">unknown system</i>
   <i type="logical" name="LCOMPAT"> F  </i>
  </separator>
  <separator name="electronic" >
   <i type="string" name="PREC">normal</i>
   <i name="ENMAX">    300.00000000</i>
   <i name="ENAUG">    644.87300000</i>
   <i name="EDIFF">      0.00010000</i>
   <i type="int" name="IALGO">    38</i>
   <i type="int" name="IWAVPR">    11</i>
   <i type="int" name="NBANDS">    20</i>
   <i name="NELECT">     32.00000000</i>
   <i type="int" name="TURBO">     0</i>
   <i type="int" name="IRESTART">     0</i>
   <i type="int" name="NREBOOT">     0</i>
   <i type="int" name="NMIN">     0</i>
   <i name="EREF">      0.00000000</i>
   <separator name="electronic smearing" >
    <i type="int" name="ISMEAR">     0</i>
    <i name="SIGMA">      0.20000000</i>
    <i name="KSPACING">      0.50000000</i>
    <i type="logical" name="KGAMMA"> T  </i>
   </separator>
   <separator name="electronic projectors" >
    <i type="logical" name="LREAL"> F  </i>
    <v name="ROPT">      0.00000000      0.00000000</v>
    <i type="int" name="LMAXPAW">  -100</i>
    <i type="int" name="LMAXMIX">     2</i>
    <i type="logical" name="NLSPLINE"> F  </i>
   </separator>
   <separator name="electronic startup" >
    <i type="int" name="ISTART">     0</i>
    <i type="int" name="ICHARG">     2</i>
    <i type="int" name="INIWAV">     1</i>
   </separator>
   <separator name="electronic spin" >
    <i type="int" name="ISPIN">     1</i>
    <i type="logical" name="LNONCOLLINEAR"> F  </i>
    <v name="MAGMOM">      1.00000000      1.00000000      1.00000000      1.00000000      1.00000000</v>
    <i name="NUPDOWN">     -1.00000000</i>
    <i type="logical" name="LSORBIT"> F  </i>
    <v name="SAXIS">      0.00000000      0.00000000      1.00000000</v>
    <i type="logical" name="LSPIRAL"> F  </i>
    <v name="QSPIRAL">      0.00000000      0.00000000      0.00000000</v>
    <i type="logical" name="LZEROZ"> F  </i>
   </separator>
   <separator name="electronic exchange-correlation" >
    <i type="logical" name="LASPH"> F  </i>
    <i type="logical" name="LMETAGGA"> F  </i>
   </separator>
   <separator name="electronic convergence" >
    <i type="int" name="NELM">    60</i>
    <i type="int" name="NELMDL">    -5</i>
    <i type="int" name="NELMIN">     2</i>
    <i name="ENINI">    300.00000000</i>
    <separator name="electronic convergence detail" >
     <i type="logical" name="LDIAG"> T  </i>
     <i type="logical" name="LSUBROT"> T  </i>
     <i name="WEIMIN">      0.00100000</i>
     <i name="EBREAK">      0.00000125</i>
     <i name="DEPER">      0.30000000</i>
     <i type="int" name="NRMM">     4</i>
     <i name="TIME">      0.40000000</i>
    </separator>
   </separator>
   <separator name="electronic mixer" >
    <i name="AMIX">      0.40000000</i>
    <i name="BMIX">      1.00000000</i>
    <i name="AMIN">      0.10000000</i>
    <i name="AMIX_MAG">      1.60000000</i>
    <i name="BMIX_MAG">      1.00000000</i>
    <separator name="electronic mixer details" >
     <i type="int" name="IMIX">     4</i>
     <i type="int" name="MAXMIX">   -45</i>
     <i name="WC">    100.00000000</i>
     <i type="int" name="INIMIX">     1</i>
     <i type="int" name="MIXPRE">     1</i>
     <i type="int" name="MREMOVE">     5</i>
    </separator>
   </separator>
   <separator name="electronic dipolcorrection" >
    <i type="logical" name="LDIPOL"> F  </i>
    <i type="logical" name="LMONO"> F  </i>
    <i type="int" name="IDIPOL">     0</i>
    <i name="EPSILON">      1.00000000</i>
    <v name="DIPOL">   -100.00000000   -100.00000000   -100.00000000</v>
    <i name="EFIELD">      0.00000000</i>
   </separator>
  </separator>
  <separator name="grids" >
   <i type="int" name="NGX">    36</i>
   <i type="int" name="NGY">    36</i>
   <i type="int" name="NGZ">    36</i>
   <i type="int" name="NGXF">    72</i>
   <i type="int" name="NGYF">    72</i>
   <i type="int" name="NGZF">    72</i>
   <i type="logical" name="ADDGRID"> F  </i>
  </separator>
  <separator name="ionic" >
   <i type="int" name="NSW">    10</i>
   <i type="int" name="IBRION">     2</i>
   <i type="int" name="ISIF">     2</i>
   <i name="PSTRESS">      0.00000000</i>
   <i name="EDIFFG">      0.00100000</i>
   <i type="int" name="NFREE">     1</i>
   <i name="POTIM">      0.50000000</i>
   <i name="SMASS">     -3.00000000</i>
   <i name="SCALEE">      1.00000000</i>
  </separator>
  <separator name="ionic md" >
   <i name="TEBEG">      0.00010000</i>
   <i name="TEEND">      0.00010000</i>
   <i type="int" name="NBLOCK">     1</i>
   <i type="int" name="KBLOCK">    10</i>
   <i type="int" name="NPACO">   256</i>
   <i name="APACO">     16.00000000</i>
  </separator>
  <separator name="symmetry" >
   <i type="int" name="ISYM">     2</i>
   <i name="SYMPREC">      0.00001000</i>
  </separator>
  <separator name="dos" >
   <i type="logical" name="LORBIT"> F  </i>
   <v name="RWIGS">     -1.00000000     -1.00000000</v>
   <i type="int" name="NEDOS">   301</i>
   <i name="EMIN">     10.00000000</i>
   <i name="EMAX">    -10.00000000</i>
   <i name="EFERMI">      0.00000000</i>
  </separator>
  <separator name="writing" >
   <i type="int" name="NWRITE">     2</i>
   <i type="logical" name="LWAVE"> T  </i>
   <i type="logical" name="LCHARG"> T  </i>
   <i type="logical" name="LPARD"> F  </i>
   <i type="logical" name="LVTOT"> F  </i>
   <i type="logical" name="LVHAR"> F  </i>
   <i type="logical" name="LELF"> F  </i>
   <i type="logical" name="LOPTICS"> F  </i>
   <v name="STM">      0.00000000      0.00000000      0.00000000      0.00000000      0.00000000      0.00000000      0.00000000</v>
  </separator>
  <separator name="performance" >
   <i type="int" name="NPAR">     1</i>
   <i type="int" name="NSIM">     4</i>
   <i type="int" name="NBLK">    -1</i>
   <i type="logical" name="LPLANE"> T  </i>
   <i type="logical" name="LSCALAPACK"> F  </i>
   <i type="logical" name="LSCAAWARE"> F  </i>
   <i type="logical" name="LSCALU"> F  </i>
   <i type="logical" name="LASYNC"> F  </i>
   <i type="logical" name="LORBITALREAL"> F  </i>
  </separator>
  <separator name="miscellaneous" >
   <i type="int" name="IDIOT">     3</i>
   <i type="logical" name="LMUSIC"> F  </i>
   <v name="POMASS">     12.01100000     18.99800000</v>
   <v name="DARWINR">      0.00000000      0.00000000</v>
   <v name="DARWINV">      1.00000000      1.00000000</v>
   <i type="logical" name="LCORR"> T  </i>
  </separator>
  <i type="logical" name="GGA_COMPAT"> T  </i>
  <i type="logical" name="LBERRY"> F  </i>
  <i type="int" name="ICORELEVEL">     0</i>
  <i type="logical" name="LDAU"> F  </i>
  <i type="int" name="I_CONSTRAINED_M">     0</i>
  <separator name="electronic exchange-correlation" >
   <i type="string" name="GGA">--</i>
   <i type="int" name="VOSKOWN">     0</i>
   <i type="logical" name="LHFCALC"> F  </i>
   <i type="string" name="PRECFOCK"></i>
   <i type="logical" name="LHFONE"> F  </i>
   <i type="logical" name="LRHFCALC"> F  </i>
   <i type="logical" name="LTHOMAS"> F  </i>
   <i type="logical" name="LMODELHF"> F  </i>
   <i name="ENCUT4O">     -1.00000000</i>
   <i type="int" name="EXXOEP">     0</i>
   <i type="int" name="FOURORBIT">     0</i>
   <i name="AEXX">      0.00000000</i>
   <i name="HFALPHA">      0.00000000</i>
   <i name="ALDAX">      1.00000000</i>
   <i name="AGGAX">      1.00000000</i>
   <i name="ALDAC">      1.00000000</i>
   <i name="AGGAC">      1.00000000</i>
   <i type="int" name="NKREDX">     1</i>
   <i type="int" name="NKREDY">     1</i>
   <i type="int" name="NKREDZ">     1</i>
   <i type="logical" name="SHIFTRED"> F  </i>
   <i type="logical" name="ODDONLY"> F  </i>
   <i type="logical" name="EVENONLY"> F  </i>
   <i type="int" name="LMAXFOCK">     0</i>
   <i type="int" name="NMAXFOCKAE">     0</i>
   <i type="logical" name="LFOCKAEDFT"> F  </i>
   <i name="HFSCREEN">      0.00000000</i>
   <i name="HFSCREENC">      0.00000000</i>
  </separator>
  <separator name="vdW DFT" >
   <i type="logical" name="LUSE_VDW"> F  </i>
   <i name="Zab_VDW">     -0.84910000</i>
   <i name="PARAM1">      0.12340000</i>
   <i name="PARAM2">      1.00000000</i>
   <i name="PARAM3">      0.00000000</i>
  </separator>
  <separator name="model GW" >
   <i type="int" name="MODEL_GW">     0</i>
   <i name="MODEL_EPS0">     61.44000000</i>
   <i name="MODEL_ALPHA">      1.00000000</i>
  </separator>
  <separator name="linear response parameters" >
   <i type="logical" name="LEPSILON"> F  </i>
   <i type="logical" name="LRPA"> F  </i>
   <i type="logical" name="LNABLA"> F  </i>
   <i type="logical" name="LVEL"> F  </i>
   <i type="int" name="KINTER">     0</i>
   <i name="CSHIFT">      0.10000000</i>
   <i name="OMEGAMAX">     -1.00000000</i>
  </separator>
  <separator name="orbital magnetization" >
   <i type="logical" name="NUCIND"> F  </i>
   <v name="MAGPOS">      0.00000000      0.00000000      0.00000000</v>
   <i type="logical" name="LNICSALL"> T  </i>
   <i type="logical" name="ORBITALMAG"> F  </i>
   <i type="logical" name="LMAGBLOCH"> F  </i>
   <i type="logical" name="LCHIMAG"> F  </i>
   <i type="logical" name="LGAUGE"> T  </i>
   <i type="int" name="MAGATOM">     0</i>
   <v name="MAGDIPOL">      0.00000000      0.00000000      0.00000000</v>
   <v name="AVECCONST">      0.00000000      0.00000000      0.00000000</v>
  </separator>
  <separator name="response functions" >
   <i type="logical" name="LADDER"> F  </i>
   <i type="logical" name="LHARTREE"> T  </i>
   <i type="int" name="IBSE">     0</i>
   <i type="logical" name="LTCTE"> F  </i>
   <i type="logical" name="LTETE"> F  </i>
   <i type="logical" name="LFXCEPS"> F  </i>
   <i type="logical" name="L2ORDER"> F  </i>
   <i type="logical" name="LUSEW"> F  </i>
   <i name="ENCUTGW">     -2.00000000</i>
   <i name="ENCUTGWSOFT">     -2.00000000</i>
   <i name="ENCUTLF">     -1.00000000</i>
   <i type="int" name="LMAXMP2">    -1</i>
   <i name="SCISSOR">      0.00000000</i>
   <i type="int" name="NOMEGA">     0</i>
   <i type="int" name="NOMEGAR">     0</i>
   <i type="int" name="NBANDSGW">    -1</i>
   <i type="int" name="NBANDSO">    -1</i>
   <i type="int" name="NBANDSV">    -1</i>
   <i name="OPTEMAX">      0.00000000</i>
   <i type="int" name="NELM">     1</i>
   <i type="int" name="DIM">     3</i>
   <i type="int" name="ANTIRES">     0</i>
   <i name="OMEGAMAX">    -30.00000000</i>
   <i name="OMEGATL">   -200.00000000</i>
   <i type="int" name="OMEGAGRID">     0</i>
   <i name="CSHIFT">     -0.10000000</i>
   <i type="logical" name="SELFENERGY"> F  </i>
   <i type="logical" name="LSPECTRAL"> F  </i>
   <i type="logical" name="ODDONLYGW"> F  </i>
   <i type="logical" name="EVENONLYGW"> F  </i>
   <i type="int" name="NKREDLFX">     1</i>
   <i type="int" name="NKREDLFY">     1</i>
   <i type="int" name="NKREDLFZ">     1</i>
   <i type="int" name="MAXMEM">  1800</i>
   <i type="int" name="TELESCOPE">     0</i>
  </separator>
 </parameters>
 <atominfo>
  <atoms>       5 </atoms>
  <types>       2 </types>
  <array name="atoms" >
   <dimension dim="1">ion</dimension>
   <field type="string">element</field>
   <field type="int">atomtype</field>
   <set>
    <rc><c>C </c><c>   1</c></rc>
    <rc><c>F </c><c>   2</c></rc>
    <rc><c>F </c><c>   2</c></rc>
    <rc><c>F </c><c>   2</c></rc>
    <rc><c>F </c><c>   2</c></rc>
   </set>
  </array>
  <array name="atomtypes" >
   <dimension dim="1">type</dimension>
   <field type="int">atomspertype</field>
   <field type="string">element</field>
   <field>mass</field>
   <field>valence</field>
   <field type="string">pseudopotential</field>
   <set>
    <rc><c>   1</c><c>C </c><c>     12.01100000</c><c>      4.00000000</c><c> PAW_PBE C 08Apr2002                    </c></rc>
    <rc><c>   4</c><c>F </c><c>     18.99800000</c><c>      7.00000000</c><c> PAW_PBE F 08Apr2002                    </c></rc>
   </set>
  </array>
 </atominfo>
 <structure name="initialpos" >
  <crystal>
   <varray name="basis" >
    <v>       8.00000000       0.00000000       0.00000000 </v>
    <v>       0.00000000       8.00000000       0.00000000 </v>
    <v>       0.00000000       0.00000000       8.00000000 </v>
   </varray>
   <i name="volume">    512.00000000 </i>
   <varray name="rec_basis" >
    <v>       0.12500000       0.00000000       0.00000000 </v>
    <v>       0.00000000       0.12500000       0.00000000 </v>
    <v>       0.00000000       0.00000000       0.12500000 </v>
   </varray>
  </crystal>
  <varray name="positions" >
   <v>       0.00000000       0.00000000       0.00000000 </v>
   <v>       0.09592950       0.09592950       0.09592950 </v>
   <v>       0.90407050       0.90407050       0.09592950 </v>
   <v>       0.90407050       0.09592950       0.90407050 </v>
   <v>       0.09592950       0.90407050       0.90407050 </v>
  </varray>
 </structure>
 <calculation>
  <scstep>
   <time name="dav">    0.63    0.63</time>
   <time name="total">    1.21    1.23</time>
   <energy>
    <i name="alphaZ">      7.54128431 </i>
    <i name="ewald">    639.40154998 </i>
    <i name="hartreedc">  -3017.86676469 </i>
    <i name="XCdc">    162.93163880 </i>
    <i name="pawpsdc">   1763.54531609 </i>
    <i name="pawaedc">  -1785.13761353 </i>
    <i name="eentropy">     -0.01523942 </i>
    <i name="bandstr">   -265.55904960 </i>
    <i name="atom">   2776.85978720 </i>
    <i name="e_fr_energy">    281.70090915 </i>
    <i name="e_wo_entrp">    281.71614857 </i>
    <i name="e_0_energy">    281.70852886 </i>
   </energy>
  </scstep>
  <scstep>
   <time name="dav">    0.70    0.70</time>
   <time name="total">    0.70    0.70</time>
   <energy>
    <i name="e_fr_energy">     18.37849408 </i>
    <i name="e_wo_entrp">     18.37849408 </i>
    <i name="e_0_energy">     18.37849408 </i>
   </energy>
  </scstep>
  <scstep>
   <time name="dav">    0.52    0.52</time>
   <time name="total">    0.52    0.54</time>
   <energy>
    <i name="e_fr_energy">    -26.49646314 </i>
    <i name="e_wo_entrp">    -26.49646314 </i>
    <i name="e_0_energy">    -26.49646314 </i>
   </energy>
  </scstep>
  <scstep>
   <time name="dav">    0.55    0.55</time>
   <time name="total">    0.56    0.57</time>
   <energy>
    <i name="e_fr_energy">    -27.23164975 </i>
    <i name="e_wo_entrp">    -27.23164975 </i>
    <i name="e_0_energy">    -27.23164975 </i>
   </energy>
  </scstep>
  <scstep>
   <time name="dav">    0.56    0.56</time>
   <time name="total">    0.67    0.69</time>
   <energy>
    <i name="e_fr_energy">    -27.25168163 </i>
    <i name="e_wo_entrp">    -27.25168163 </i>
    <i name="e_0_energy">    -27.25168163 </i>
   </energy>
  </scstep>
  <scstep>
   <time name="dav">    0.56    0.56</time>
   <time name="total">    1.17    1.19</time>
   <energy>
    <i name="e_fr_energy">    -26.09232483 </i>
    <i name="e_wo_entrp">    -26.09232483 </i>
    <i name="e_0_energy">    -26.09232483 </i>
   </energy>
  </scstep>
  <scstep>
   <time name="dav">    0.56    0.56</time>
   <time name="total">    1.18    1.18</time>
   <energy>
    <i name="e_fr_energy">    -26.05555846 </i>
    <i name="e_wo_entrp">    -26.05555846 </i>
    <i name="e_0_energy">    -26.05555846 </i>
   </energy>
  </scstep>
  <scstep>
   <time name="dav">    0.55    0.56</time>
   <time name="total">    1.20    1.22</time>
   <energy>
    <i name="e_fr_energy">    -26.09455506 </i>
    <i name="e_wo_entrp">    -26.09455506 </i>
    <i name="e_0_energy">    -26.09455506 </i>
   </energy>
  </scstep>
  <scstep>
   <time name="dav">    0.56    0.56</time>
   <time name="total">    1.21    2.24</time>
   <energy>
    <i name="e_fr_energy">    -26.09587729 </i>
    <i name="e_wo_entrp">    -26.09587729 </i>
    <i name="e_0_energy">    -26.09587729 </i>
   </energy>
  </scstep>
  <scstep>
   <time name="dav">    0.52    0.52</time>
   <time name="total">    1.06    1.47</time>
   <energy>
    <i name="alphaZ">      7.54128431 </i>
    <i name="ewald">    639.40154998 </i>
    <i name="hartreedc">  -3034.25566513 </i>
    <i name="XCdc">    164.75392785 </i>
    <i name="pawpsdc">   2094.62218269 </i>
    <i name="pawaedc">  -2113.32086633 </i>
    <i name="eentropy">      0.00000000 </i>
    <i name="bandstr">   -561.69811881 </i>
    <i name="atom">   2776.85978720 </i>
    <i name="e_fr_energy">    -26.09591823 </i>
    <i name="e_wo_entrp">    -26.09591823 </i>
    <i name="e_0_energy">    -26.09591823 </i>
   </energy>
  </scstep>
  <parameters_embedded>
   <separator name="dft+d2" >
    <i type="logical" name="LVDW"> F  </i>
   </separator>
  </parameters_embedded>
  <structure>
   <crystal>
    <varray name="basis" >
     <v>       8.00000000       0.00000000       0.00000000 </v>
     <v>       0.00000000       8.00000000       0.00000000 </v>
     <v>       0.00000000       0.00000000       8.00000000 </v>
    </varray>
    <i name="volume">    512.00000000 </i>
    <varray name="rec_basis" >
     <v>       0.12500000       0.00000000       0.00000000 </v>
     <v>       0.00000000       0.12500000       0.00000000 </v>
     <v>       0.00000000       0.00000000       0.12500000 </v>
    </varray>
   </crystal>
   <varray name="positions" >
    <v>       0.00000000       0.00000000       0.00000000 </v>
    <v>       0.09592950       0.09592950       0.09592950 </v>
    <v>       0.90407050       0.90407050       0.09592950 </v>
    <v>       0.90407050       0.09592950       0.90407050 </v>
    <v>       0.09592950       0.90407050       0.90407050 </v>
   </varray>
  </structure>
  <varray name="forces" >
   <v>       0.00000000       0.00000000       0.00000000 </v>
   <v>       0.69762906       0.69762906       0.69762906 </v>
   <v>      -0.69762906      -0.69762906       0.69762906 </v>
   <v>      -0.69762906       0.69762906      -0.69762906 </v>
   <v>       0.69762906      -0.69762906      -0.69762906 </v>
  </varray>
  <varray name="stress" >
   <v>    -103.92347640       0.00000000       0.00000000 </v>
   <v>       0.00000000    -103.92347640       0.00000000 </v>
   <v>       0.00000000       0.00000000    -103.92347640 </v>
  </varray>
  <energy>
   <i name="e_fr_energy">    -26.09591823 </i>
   <i name="e_wo_entrp">    -26.09591823 </i>
   <i name="e_0_energy">      0.00000000 </i>
  </energy>
  <time name="totalsc">   11.60   14.17</time>
 </calculation>
 <calculation>
  <scstep>
   <time name="dav">    0.55    0.55</time>
   <time name="total">    1.21    1.22</time>
   <energy>
    <i name="alphaZ">      7.54128431 </i>
    <i name="ewald">    514.32560444 </i>
    <i name="hartreedc">  -2926.42731247 </i>
    <i name="XCdc">    163.98444428 </i>
    <i name="pawpsdc">   2093.92582750 </i>
    <i name="pawaedc">  -2112.63270476 </i>
    <i name="eentropy">      0.00000000 </i>
    <i name="bandstr">   -543.49294462 </i>
    <i name="atom">   2776.85978720 </i>
    <i name="e_fr_energy">    -25.91601412 </i>
    <i name="e_wo_entrp">    -25.91601412 </i>
    <i name="e_0_energy">    -25.91601412 </i>
   </energy>
  </scstep>
  <scstep>
   <time name="dav">    0.56    0.56</time>
   <time name="total">    1.19    1.19</time>
   <energy>
    <i name="e_fr_energy">    -26.06171897 </i>
    <i name="e_wo_entrp">    -26.06171897 </i>
    <i name="e_0_energy">    -26.06171897 </i>
   </energy>
  </scstep>
  <scstep>
   <time name="dav">    0.48    0.48</time>
   <time name="total">    1.10    1.12</time>
   <energy>
    <i name="e_fr_energy">    -26.06149772 </i>
    <i name="e_wo_entrp">    -26.06149772 </i>
    <i name="e_0_energy">    -26.06149772 </i>
   </energy>
  </scstep>
  <scstep>
   <time name="dav">    0.56    0.56</time>
   <time name="total">    1.17    1.18</time>
   <energy>
    <i name="e_fr_energy">    -26.08155742 </i>
    <i name="e_wo_entrp">    -26.08155742 </i>
    <i name="e_0_energy">    -26.08155742 </i>
   </energy>
  </scstep>
  <scstep>
   <time name="dav">    0.55    0.55</time>
   <time name="total">    1.18    1.19</time>
   <energy>
    <i name="e_fr_energy">    -26.08368937 </i>
    <i name="e_wo_entrp">    -26.08368937 </i>
    <i name="e_0_energy">    -26.08368937 </i>
   </energy>
  </scstep>
  <scstep>
   <time name="dav">    0.52    0.52</time>
   <time name="total">    1.15    1.16</time>
   <energy>
    <i name="e_fr_energy">    -26.08348762 </i>
    <i name="e_wo_entrp">    -26.08348762 </i>
    <i name="e_0_energy">    -26.08348762 </i>
   </energy>
  </scstep>
  <scstep>
   <time name="dav">    0.49    0.49</time>
   <time name="total">    1.13    1.14</time>
   <energy>
    <i name="e_fr_energy">    -26.08377539 </i>
    <i name="e_wo_entrp">    -26.08377539 </i>
    <i name="e_0_energy">    -26.08377539 </i>
   </energy>
  </scstep>
  <scstep>
   <time name="dav">    0.42    0.42</time>
   <time name="total">    0.96    0.97</time>
   <energy>
    <i name="alphaZ">      7.54128431 </i>
    <i name="ewald">    514.32560444 </i>
    <i name="hartreedc">  -2915.79294322 </i>
    <i name="XCdc">    163.50985591 </i>
    <i name="pawpsdc">   2050.70380876 </i>
    <i name="pawaedc">  -2069.18726492 </i>
    <i name="eentropy">      0.00000000 </i>
    <i name="bandstr">   -554.04400324 </i>
    <i name="atom">   2776.85978720 </i>
    <i name="e_fr_energy">    -26.08387076 </i>
    <i name="e_wo_entrp">    -26.08387076 </i>
    <i name="e_0_energy">    -26.08387076 </i>
   </energy>
  </scstep>
  <structure>
   <crystal>
    <varray name="basis" >
     <v>       8.00000000       0.00000000       0.00000000 </v>
     <v>       0.00000000       8.00000000       0.00000000 </v>
     <v>       0.00000000       0.00000000       8.00000000 </v>
    </varray>
    <i name="volume">    512.00000000 </i>
    <varray name="rec_basis" >
     <v>       0.12500000       0.00000000       0.00000000 </v>
     <v>       0.00000000       0.12500000       0.00000000 </v>
     <v>       0.00000000       0.00000000       0.12500000 </v>
    </varray>
   </crystal>
   <varray name="positions" >
    <v>       0.00000000       0.00000000       0.00000000 </v>
    <v>       0.10013643       0.10013643       0.10013643 </v>
    <v>       0.89986357       0.89986357       0.10013643 </v>
    <v>       0.89986357       0.10013643       0.89986357 </v>
    <v>       0.10013643       0.89986357       0.89986357 </v>
   </varray>
  </structure>
  <varray name="forces" >
   <v>       0.00000000       0.00000000       0.00000000 </v>
   <v>      -0.68021859      -0.68021859      -0.68021859 </v>
   <v>       0.68021859       0.68021859      -0.68021859 </v>
   <v>       0.68021859      -0.68021859       0.68021859 </v>
   <v>      -0.68021859       0.68021859       0.68021859 </v>
  </varray>
  <varray name="stress" >
   <v>    -117.64301990       0.00000000       0.00000000 </v>
   <v>       0.00000000    -117.64301990       0.00000000 </v>
   <v>       0.00000000       0.00000000    -117.64301990 </v>
  </varray>
  <energy>
   <i name="e_fr_energy">    -26.08387076 </i>
   <i name="e_wo_entrp">    -26.08387076 </i>
   <i name="e_0_energy">      0.00000000 </i>
  </energy>
  <time name="totalsc">   10.51   10.64</time>
 </calculation>
 <calculation>
  <scstep>
   <time name="dav">    0.53    0.53</time>
   <time name="total">    1.25    1.26</time>
   <energy>
    <i name="alphaZ">      7.54128431 </i>
    <i name="ewald">    579.83734747 </i>
    <i name="hartreedc">  -2972.04757216 </i>
    <i name="XCdc">    163.89207207 </i>
    <i name="pawpsdc">   2050.61034786 </i>
    <i name="pawaedc">  -2069.09404762 </i>
    <i name="eentropy">      0.00000000 </i>
    <i name="bandstr">   -563.71208476 </i>
    <i name="atom">   2776.85978720 </i>
    <i name="e_fr_energy">    -26.11286562 </i>
    <i name="e_wo_entrp">    -26.11286562 </i>
    <i name="e_0_energy">    -26.11286562 </i>
   </energy>
  </scstep>
  <scstep>
   <time name="dav">    0.62    0.62</time>
   <time name="total">    1.31    1.45</time>
   <energy>
    <i name="e_fr_energy">    -26.14906279 </i>
    <i name="e_wo_entrp">    -26.14906279 </i>
    <i name="e_0_energy">    -26.14906279 </i>
   </energy>
  </scstep>
  <scstep>
   <time name="dav">    0.58    0.58</time>
   <time name="total">    1.28    1.29</time>
   <energy>
    <i name="e_fr_energy">    -26.15130091 </i>
    <i name="e_wo_entrp">    -26.15130091 </i>
    <i name="e_0_energy">    -26.15130091 </i>
   </energy>
  </scstep>
  <scstep>
   <time name="dav">    0.62    0.62</time>
   <time name="total">    1.33    1.35</time>
   <energy>
    <i name="e_fr_energy">    -26.15864962 </i>
    <i name="e_wo_entrp">    -26.15864962 </i>
    <i name="e_0_energy">    -26.15864962 </i>
   </energy>
  </scstep>
  <scstep>
   <time name="dav">    0.58    0.58</time>
   <time name="total">    1.29    1.31</time>
   <energy>
    <i name="e_fr_energy">    -26.15878464 </i>
    <i name="e_wo_entrp">    -26.15878464 </i>
    <i name="e_0_energy">    -26.15878464 </i>
   </energy>
  </scstep>
  <scstep>
   <time name="dav">    0.55    0.55</time>
   <time name="total">    1.26    1.28</time>
   <energy>
    <i name="e_fr_energy">    -26.15913379 </i>
    <i name="e_wo_entrp">    -26.15913379 </i>
    <i name="e_0_energy">    -26.15913379 </i>
   </energy>
  </scstep>
  <scstep>
   <time name="dav">    0.47    0.47</time>
   <time name="total">    1.05    1.07</time>
   <energy>
    <i name="alphaZ">      7.54128431 </i>
    <i name="ewald">    579.83734747 </i>
    <i name="hartreedc">  -2977.70423906 </i>
    <i name="XCdc">    164.14727479 </i>
    <i name="pawpsdc">   2072.53300649 </i>
    <i name="pawaedc">  -2091.11938344 </i>
    <i name="eentropy">      0.00000000 </i>
    <i name="bandstr">   -558.25422450 </i>
    <i name="atom">   2776.85978720 </i>
    <i name="e_fr_energy">    -26.15914674 </i>
    <i name="e_wo_entrp">    -26.15914674 </i>
    <i name="e_0_energy">    -26.15914674 </i>
   </energy>
  </scstep>
  <structure>
   <crystal>
    <varray name="basis" >
     <v>       8.00000000       0.00000000       0.00000000 </v>
     <v>       0.00000000       8.00000000       0.00000000 </v>
     <v>       0.00000000       0.00000000       8.00000000 </v>
    </varray>
    <i name="volume">    512.00000000 </i>
    <varray name="rec_basis" >
     <v>       0.12500000       0.00000000       0.00000000 </v>
     <v>       0.00000000       0.12500000       0.00000000 </v>
     <v>       0.00000000       0.00000000       0.12500000 </v>
    </varray>
   </crystal>
   <varray name="positions" >
    <v>       0.00000000       0.00000000       0.00000000 </v>
    <v>       0.09788394       0.09788394       0.09788394 </v>
    <v>       0.90211606       0.90211606       0.09788394 </v>
    <v>       0.90211606       0.09788394       0.90211606 </v>
    <v>       0.09788394       0.90211606       0.90211606 </v>
   </varray>
  </structure>
  <varray name="forces" >
   <v>       0.00000000       0.00000000       0.00000000 </v>
   <v>      -0.00493102      -0.00493102      -0.00493102 </v>
   <v>       0.00493102       0.00493102      -0.00493102 </v>
   <v>       0.00493102      -0.00493102       0.00493102 </v>
   <v>      -0.00493102       0.00493102       0.00493102 </v>
  </varray>
  <varray name="stress" >
   <v>    -110.67680677       0.00000000       0.00000000 </v>
   <v>       0.00000000    -110.67680677       0.00000000 </v>
   <v>       0.00000000       0.00000000    -110.67680677 </v>
  </varray>
  <energy>
   <i name="e_fr_energy">    -26.15914674 </i>
   <i name="e_wo_entrp">    -26.15914674 </i>
   <i name="e_0_energy">      0.00000000 </i>
  </energy>
  <time name="totalsc">   10.14   10.94</time>
  <eigenvalues>
   <array>
    <dimension dim="1">band</dimension>
    <dimension dim="2">kpoint</dimension>
    <dimension dim="3">spin</dimension>
    <field>eigene</field>
    <field>occ</field>
    <set>
     <set comment="spin 1">
      <set comment="kpoint 1">
       <r>  -34.0935    1.0000 </r>
       <r>  -31.3743    1.0000 </r>
       <r>  -31.3743    1.0000 </r>
       <r>  -31.3743    1.0000 </r>
       <r>  -17.9197    1.0000 </r>
       <r>  -15.3276    1.0000 </r>
       <r>  -15.3276    1.0000 </r>
       <r>  -15.3276    1.0000 </r>
       <r>  -11.6880    1.0000 </r>
       <r>  -11.6880    1.0000 </r>
       <r>  -11.2019    1.0000 </r>
       <r>  -11.2019    1.0000 </r>
       <r>  -11.2019    1.0000 </r>
       <r>  -10.0088    1.0000 </r>
       <r>  -10.0088    1.0000 </r>
       <r>  -10.0088    1.0000 </r>
       <r>   -0.4297    0.0000 </r>
       <r>    1.8887    0.0000 </r>
       <r>    1.8887    0.0000 </r>
       <r>    1.9624    0.0000 </r>
      </set>
     </set>
    </set>
   </array>
  </eigenvalues>
  <separator name="orbital magnetization" >
   <v name="MAGDIPOLOUT">      0.00000000      0.00000000      0.00000000</v>
  </separator>
  <dos>
   <i name="efermi">     -8.98689871 </i>
   <total>
    <array>
     <dimension dim="1">gridpoints</dimension>
     <dimension dim="2">spin</dimension>
     <field>energy</field>
     <field>total</field>
     <field>integrated</field>
     <set>
      <set comment="spin 1">
       <r>   -36.0935     0.0000     0.0000 </r>
       <r>   -35.9600     0.0000     0.0000 </r>
       <r>   -35.8265     0.0000     0.0000 </r>
       <r>   -35.6929     0.0000     0.0000 </r>
       <r>   -35.5594     0.0000     0.0000 </r>
       <r>   -35.4259     0.0000     0.0000 </r>
       <r>   -35.2924     0.0000     0.0000 </r>
       <r>   -35.1589     0.0000     0.0000 </r>
       <r>   -35.0253     0.0000     0.0000 </r>
       <r>   -34.8918     0.0000     0.0000 </r>
       <r>   -34.7583     0.0000     0.0000 </r>
       <r>   -34.6248     0.0013     0.0002 </r>
       <r>   -34.4913     0.0355     0.0049 </r>
       <r>   -34.3577     0.4253     0.0617 </r>
       <r>   -34.2242     2.1990     0.3553 </r>
       <r>   -34.0907     4.9466     1.0158 </r>
       <r>   -33.9572     4.8617     1.6649 </r>
       <r>   -33.8237     2.0874     1.9436 </r>
       <r>   -33.6901     0.3898     1.9957 </r>
       <r>   -33.5566     0.0314     1.9999 </r>
       <r>   -33.4231     0.0011     2.0000 </r>
       <r>   -33.2896     0.0000     2.0000 </r>
       <r>   -33.1561     0.0000     2.0000 </r>
       <r>   -33.0225     0.0000     2.0000 </r>
       <r>   -32.8890     0.0000     2.0000 </r>
       <r>   -32.7555     0.0000     2.0000 </r>
       <r>   -32.6220     0.0000     2.0000 </r>
       <r>   -32.4885     0.0000     2.0000 </r>
       <r>   -32.3549     0.0000     2.0000 </r>
       <r>   -32.2214     0.0000     2.0000 </r>
       <r>   -32.0879     0.0000     2.0000 </r>
       <r>   -31.9544     0.0009     2.0001 </r>
       <r>   -31.8209     0.0348     2.0048 </r>
       <r>   -31.6873     0.5681     2.0806 </r>
       <r>   -31.5538     3.9882     2.6131 </r>
       <r>   -31.4203    12.1503     4.2354 </r>
       <r>   -31.2868    16.1547     6.3924 </r>
       <r>   -31.1533     9.3887     7.6460 </r>
       <r>   -31.0197     2.3781     7.9635 </r>
       <r>   -30.8862     0.2608     7.9983 </r>
       <r>   -30.7527     0.0123     8.0000 </r>
       <r>   -30.6192     0.0002     8.0000 </r>
       <r>   -30.4857     0.0000     8.0000 </r>
       <r>   -30.3521     0.0000     8.0000 </r>
       <r>   -30.2186     0.0000     8.0000 </r>
       <r>   -30.0851     0.0000     8.0000 </r>
       <r>   -29.9516     0.0000     8.0000 </r>
       <r>   -29.8181     0.0000     8.0000 </r>
       <r>   -29.6845     0.0000     8.0000 </r>
       <r>   -29.5510     0.0000     8.0000 </r>
       <r>   -29.4175     0.0000     8.0000 </r>
       <r>   -29.2840     0.0000     8.0000 </r>
       <r>   -29.1505     0.0000     8.0000 </r>
       <r>   -29.0169     0.0000     8.0000 </r>
       <r>   -28.8834     0.0000     8.0000 </r>
       <r>   -28.7499     0.0000     8.0000 </r>
       <r>   -28.6164     0.0000     8.0000 </r>
       <r>   -28.4829     0.0000     8.0000 </r>
       <r>   -28.3493     0.0000     8.0000 </r>
       <r>   -28.2158     0.0000     8.0000 </r>
       <r>   -28.0823     0.0000     8.0000 </r>
       <r>   -27.9488     0.0000     8.0000 </r>
       <r>   -27.8153     0.0000     8.0000 </r>
       <r>   -27.6817     0.0000     8.0000 </r>
       <r>   -27.5482     0.0000     8.0000 </r>
       <r>   -27.4147     0.0000     8.0000 </r>
       <r>   -27.2812     0.0000     8.0000 </r>
       <r>   -27.1477     0.0000     8.0000 </r>
       <r>   -27.0142     0.0000     8.0000 </r>
       <r>   -26.8806     0.0000     8.0000 </r>
       <r>   -26.7471     0.0000     8.0000 </r>
       <r>   -26.6136     0.0000     8.0000 </r>
       <r>   -26.4801     0.0000     8.0000 </r>
       <r>   -26.3466     0.0000     8.0000 </r>
       <r>   -26.2130     0.0000     8.0000 </r>
       <r>   -26.0795     0.0000     8.0000 </r>
       <r>   -25.9460     0.0000     8.0000 </r>
       <r>   -25.8125     0.0000     8.0000 </r>
       <r>   -25.6790     0.0000     8.0000 </r>
       <r>   -25.5454     0.0000     8.0000 </r>
       <r>   -25.4119     0.0000     8.0000 </r>
       <r>   -25.2784     0.0000     8.0000 </r>
       <r>   -25.1449     0.0000     8.0000 </r>
       <r>   -25.0114     0.0000     8.0000 </r>
       <r>   -24.8778     0.0000     8.0000 </r>
       <r>   -24.7443     0.0000     8.0000 </r>
       <r>   -24.6108     0.0000     8.0000 </r>
       <r>   -24.4773     0.0000     8.0000 </r>
       <r>   -24.3438     0.0000     8.0000 </r>
       <r>   -24.2102     0.0000     8.0000 </r>
       <r>   -24.0767     0.0000     8.0000 </r>
       <r>   -23.9432     0.0000     8.0000 </r>
       <r>   -23.8097     0.0000     8.0000 </r>
       <r>   -23.6762     0.0000     8.0000 </r>
       <r>   -23.5426     0.0000     8.0000 </r>
       <r>   -23.4091     0.0000     8.0000 </r>
       <r>   -23.2756     0.0000     8.0000 </r>
       <r>   -23.1421     0.0000     8.0000 </r>
       <r>   -23.0086     0.0000     8.0000 </r>
       <r>   -22.8750     0.0000     8.0000 </r>
       <r>   -22.7415     0.0000     8.0000 </r>
       <r>   -22.6080     0.0000     8.0000 </r>
       <r>   -22.4745     0.0000     8.0000 </r>
       <r>   -22.3410     0.0000     8.0000 </r>
       <r>   -22.2074     0.0000     8.0000 </r>
       <r>   -22.0739     0.0000     8.0000 </r>
       <r>   -21.9404     0.0000     8.0000 </r>
       <r>   -21.8069     0.0000     8.0000 </r>
       <r>   -21.6734     0.0000     8.0000 </r>
       <r>   -21.5398     0.0000     8.0000 </r>
       <r>   -21.4063     0.0000     8.0000 </r>
       <r>   -21.2728     0.0000     8.0000 </r>
       <r>   -21.1393     0.0000     8.0000 </r>
       <r>   -21.0058     0.0000     8.0000 </r>
       <r>   -20.8722     0.0000     8.0000 </r>
       <r>   -20.7387     0.0000     8.0000 </r>
       <r>   -20.6052     0.0000     8.0000 </r>
       <r>   -20.4717     0.0000     8.0000 </r>
       <r>   -20.3382     0.0000     8.0000 </r>
       <r>   -20.2046     0.0000     8.0000 </r>
       <r>   -20.0711     0.0000     8.0000 </r>
       <r>   -19.9376     0.0000     8.0000 </r>
       <r>   -19.8041     0.0000     8.0000 </r>
       <r>   -19.6706     0.0000     8.0000 </r>
       <r>   -19.5370     0.0000     8.0000 </r>
       <r>   -19.4035     0.0000     8.0000 </r>
       <r>   -19.2700     0.0000     8.0000 </r>
       <r>   -19.1365     0.0000     8.0000 </r>
       <r>   -19.0030     0.0000     8.0000 </r>
       <r>   -18.8694     0.0000     8.0000 </r>
       <r>   -18.7359     0.0000     8.0000 </r>
       <r>   -18.6024     0.0000     8.0000 </r>
       <r>   -18.4689     0.0008     8.0001 </r>
       <r>   -18.3354     0.0239     8.0033 </r>
       <r>   -18.2018     0.3199     8.0460 </r>
       <r>   -18.0683     1.8510     8.2931 </r>
       <r>   -17.9348     4.6551     8.9147 </r>
       <r>   -17.8013     5.1132     9.5974 </r>
       <r>   -17.6678     2.4543     9.9251 </r>
       <r>   -17.5342     0.5128     9.9936 </r>
       <r>   -17.4007     0.0463     9.9998 </r>
       <r>   -17.2672     0.0018    10.0000 </r>
       <r>   -17.1337     0.0000    10.0000 </r>
       <r>   -17.0002     0.0000    10.0000 </r>
       <r>   -16.8667     0.0000    10.0000 </r>
       <r>   -16.7331     0.0000    10.0000 </r>
       <r>   -16.5996     0.0000    10.0000 </r>
       <r>   -16.4661     0.0000    10.0000 </r>
       <r>   -16.3326     0.0000    10.0000 </r>
       <r>   -16.1991     0.0000    10.0000 </r>
       <r>   -16.0655     0.0000    10.0000 </r>
       <r>   -15.9320     0.0004    10.0001 </r>
       <r>   -15.7985     0.0191    10.0026 </r>
       <r>   -15.6650     0.3634    10.0511 </r>
       <r>   -15.5315     2.9739    10.4482 </r>
       <r>   -15.3979    10.5472    11.8565 </r>
       <r>   -15.2644    16.3126    14.0345 </r>
       <r>   -15.1309    11.0288    15.5071 </r>
       <r>   -14.9974     3.2524    15.9413 </r>
       <r>   -14.8639     0.4159    15.9969 </r>
       <r>   -14.7303     0.0229    15.9999 </r>
       <r>   -14.5968     0.0005    16.0000 </r>
       <r>   -14.4633     0.0000    16.0000 </r>
       <r>   -14.3298     0.0000    16.0000 </r>
       <r>   -14.1963     0.0000    16.0000 </r>
       <r>   -14.0627     0.0000    16.0000 </r>
       <r>   -13.9292     0.0000    16.0000 </r>
       <r>   -13.7957     0.0000    16.0000 </r>
       <r>   -13.6622     0.0000    16.0000 </r>
       <r>   -13.5287     0.0000    16.0000 </r>
       <r>   -13.3951     0.0000    16.0000 </r>
       <r>   -13.2616     0.0000    16.0000 </r>
       <r>   -13.1281     0.0000    16.0000 </r>
       <r>   -12.9946     0.0000    16.0000 </r>
       <r>   -12.8611     0.0000    16.0000 </r>
       <r>   -12.7275     0.0000    16.0000 </r>
       <r>   -12.5940     0.0000    16.0000 </r>
       <r>   -12.4605     0.0000    16.0000 </r>
       <r>   -12.3270     0.0001    16.0000 </r>
       <r>   -12.1935     0.0052    16.0007 </r>
       <r>   -12.0599     0.1227    16.0171 </r>
       <r>   -11.9264     1.2479    16.1837 </r>
       <r>   -11.7929     5.4903    16.9168 </r>
       <r>   -11.6594    10.5445    18.3247 </r>
       <r>   -11.5259     9.2740    19.5629 </r>
       <r>   -11.3923     6.7294    20.4614 </r>
       <r>   -11.2588    11.9550    22.0577 </r>
       <r>   -11.1253    16.3157    24.2361 </r>
       <r>   -10.9918    10.1260    25.5882 </r>
       <r>   -10.8583     2.7453    25.9547 </r>
       <r>   -10.7247     0.3225    25.9978 </r>
       <r>   -10.5912     0.0171    26.0001 </r>
       <r>   -10.4577     0.0332    26.0045 </r>
       <r>   -10.3242     0.5446    26.0772 </r>
       <r>   -10.1907     3.8805    26.5953 </r>
       <r>   -10.0571    11.9984    28.1974 </r>
       <r>    -9.9236    16.1897    30.3590 </r>
       <r>    -9.7901     9.5489    31.6340 </r>
       <r>    -9.6566     2.4548    31.9617 </r>
       <r>    -9.5231     0.2733    31.9982 </r>
       <r>    -9.3895     0.0131    32.0000 </r>
       <r>    -9.2560     0.0003    32.0000 </r>
       <r>    -9.1225     0.0000    32.0000 </r>
       <r>    -8.9890     0.0000    32.0000 </r>
       <r>    -8.8555     0.0000    32.0000 </r>
       <r>    -8.7219     0.0000    32.0000 </r>
       <r>    -8.5884     0.0000    32.0000 </r>
       <r>    -8.4549     0.0000    32.0000 </r>
       <r>    -8.3214     0.0000    32.0000 </r>
       <r>    -8.1879     0.0000    32.0000 </r>
       <r>    -8.0543     0.0000    32.0000 </r>
       <r>    -7.9208     0.0000    32.0000 </r>
       <r>    -7.7873     0.0000    32.0000 </r>
       <r>    -7.6538     0.0000    32.0000 </r>
       <r>    -7.5203     0.0000    32.0000 </r>
       <r>    -7.3867     0.0000    32.0000 </r>
       <r>    -7.2532     0.0000    32.0000 </r>
       <r>    -7.1197     0.0000    32.0000 </r>
       <r>    -6.9862     0.0000    32.0000 </r>
       <r>    -6.8527     0.0000    32.0000 </r>
       <r>    -6.7191     0.0000    32.0000 </r>
       <r>    -6.5856     0.0000    32.0000 </r>
       <r>    -6.4521     0.0000    32.0000 </r>
       <r>    -6.3186     0.0000    32.0000 </r>
       <r>    -6.1851     0.0000    32.0000 </r>
       <r>    -6.0516     0.0000    32.0000 </r>
       <r>    -5.9180     0.0000    32.0000 </r>
       <r>    -5.7845     0.0000    32.0000 </r>
       <r>    -5.6510     0.0000    32.0000 </r>
       <r>    -5.5175     0.0000    32.0000 </r>
       <r>    -5.3840     0.0000    32.0000 </r>
       <r>    -5.2504     0.0000    32.0000 </r>
       <r>    -5.1169     0.0000    32.0000 </r>
       <r>    -4.9834     0.0000    32.0000 </r>
       <r>    -4.8499     0.0000    32.0000 </r>
       <r>    -4.7164     0.0000    32.0000 </r>
       <r>    -4.5828     0.0000    32.0000 </r>
       <r>    -4.4493     0.0000    32.0000 </r>
       <r>    -4.3158     0.0000    32.0000 </r>
       <r>    -4.1823     0.0000    32.0000 </r>
       <r>    -4.0488     0.0000    32.0000 </r>
       <r>    -3.9152     0.0000    32.0000 </r>
       <r>    -3.7817     0.0000    32.0000 </r>
       <r>    -3.6482     0.0000    32.0000 </r>
       <r>    -3.5147     0.0000    32.0000 </r>
       <r>    -3.3812     0.0000    32.0000 </r>
       <r>    -3.2476     0.0000    32.0000 </r>
       <r>    -3.1141     0.0000    32.0000 </r>
       <r>    -2.9806     0.0000    32.0000 </r>
       <r>    -2.8471     0.0000    32.0000 </r>
       <r>    -2.7136     0.0000    32.0000 </r>
       <r>    -2.5800     0.0000    32.0000 </r>
       <r>    -2.4465     0.0000    32.0000 </r>
       <r>    -2.3130     0.0000    32.0000 </r>
       <r>    -2.1795     0.0000    32.0000 </r>
       <r>    -2.0460     0.0000    32.0000 </r>
       <r>    -1.9124     0.0000    32.0000 </r>
       <r>    -1.7789     0.0000    32.0000 </r>
       <r>    -1.6454     0.0000    32.0000 </r>
       <r>    -1.5119     0.0000    32.0000 </r>
       <r>    -1.3784     0.0000    32.0000 </r>
       <r>    -1.2448     0.0000    32.0000 </r>
       <r>    -1.1113     0.0000    32.0000 </r>
       <r>    -0.9778     0.0008    32.0001 </r>
       <r>    -0.8443     0.0245    32.0034 </r>
       <r>    -0.7108     0.3260    32.0469 </r>
       <r>    -0.5772     1.8726    32.2969 </r>
       <r>    -0.4437     4.6756    32.9212 </r>
       <r>    -0.3102     5.0988    33.6020 </r>
       <r>    -0.1767     2.4298    33.9264 </r>
       <r>    -0.0432     0.5040    33.9937 </r>
       <r>     0.0904     0.0452    33.9998 </r>
       <r>     0.2239     0.0017    34.0000 </r>
       <r>     0.3574     0.0000    34.0000 </r>
       <r>     0.4909     0.0000    34.0000 </r>
       <r>     0.6244     0.0000    34.0000 </r>
       <r>     0.7580     0.0000    34.0000 </r>
       <r>     0.8915     0.0000    34.0000 </r>
       <r>     1.0250     0.0000    34.0000 </r>
       <r>     1.1585     0.0000    34.0000 </r>
       <r>     1.2920     0.0004    34.0001 </r>
       <r>     1.4256     0.0166    34.0023 </r>
       <r>     1.5591     0.3117    34.0439 </r>
       <r>     1.6926     2.5739    34.3876 </r>
       <r>     1.8261     9.4662    35.6515 </r>
       <r>     1.9596    15.7356    37.7525 </r>
       <r>     2.0932    11.9515    39.3483 </r>
       <r>     2.2267     4.1668    39.9046 </r>
       <r>     2.3602     0.6648    39.9934 </r>
       <r>     2.4937     0.0481    39.9998 </r>
       <r>     2.6272     0.0015    40.0000 </r>
       <r>     2.7608     0.0000    40.0000 </r>
       <r>     2.8943     0.0000    40.0000 </r>
       <r>     3.0278     0.0000    40.0000 </r>
       <r>     3.1613     0.0000    40.0000 </r>
       <r>     3.2948     0.0000    40.0000 </r>
       <r>     3.4284     0.0000    40.0000 </r>
       <r>     3.5619     0.0000    40.0000 </r>
       <r>     3.6954     0.0000    40.0000 </r>
       <r>     3.8289     0.0000    40.0000 </r>
       <r>     3.9624     0.0000    40.0000 </r>
      </set>
     </set>
    </array>
   </total>
  </dos>
 </calculation>
 <structure name="finalpos" >
  <crystal>
   <varray name="basis" >
    <v>       8.00000000       0.00000000       0.00000000 </v>
    <v>       0.00000000       8.00000000       0.00000000 </v>
    <v>       0.00000000       0.00000000       8.00000000 </v>
   </varray>
   <i name="volume">    512.00000000 </i>
   <varray name="rec_basis" >
    <v>       0.12500000       0.00000000       0.00000000 </v>
    <v>       0.00000000       0.12500000       0.00000000 </v>
    <v>       0.00000000       0.00000000       0.12500000 </v>
   </varray>
  </crystal>
  <varray name="positions" >
   <v>       0.00000000       0.00000000       0.00000000 </v>
   <v>       0.09788394       0.09788394       0.09788394 </v>
   <v>       0.90211606       0.90211606       0.09788394 </v>
   <v>       0.90211606       0.09788394       0.90211606 </v>
   <v>       0.09788394       0.90211606       0.90211606 </v>
  </varray>
 </structure>
</modeling>
