 running on    1 nodes
 distr:  one band on    1 nodes,    1 groups
 vasp.5.2.12 11Nov11 complex                                                    
  
 POSCAR found :  2 types and       8 ions
 LDA part: xc-table for Pade appr. of Perdew
 POSCAR, INCAR and KPOINTS ok, starting setup
 WARNING: small aliasing (wrap around) errors must be expected
 FFT: planning ...(           1 )
 WAVECAR not read
 entering main loop
       N       E                     dE             d eps       ncg     rms          rms(c)
DAV:   1     0.702836345942E+02    0.70284E+02   -0.34354E+03    24   0.573E+02
DAV:   2    -0.235378954148E+02   -0.93822E+02   -0.92313E+02    36   0.147E+02
DAV:   3    -0.444895737119E+02   -0.20952E+02   -0.20891E+02    32   0.719E+01
DAV:   4    -0.459401081319E+02   -0.14505E+01   -0.14495E+01    32   0.216E+01
DAV:   5    -0.459809072511E+02   -0.40799E-01   -0.40797E-01    28   0.355E+00    0.105E+01
DAV:   6    -0.415879771198E+02    0.43929E+01   -0.81739E+00    24   0.167E+01    0.477E+00
DAV:   7    -0.407049250338E+02    0.88305E+00   -0.25194E+00    28   0.862E+00    0.237E+00
DAV:   8    -0.404840586269E+02    0.22087E+00   -0.44058E-01    28   0.439E+00    0.680E-01
DAV:   9    -0.404692027777E+02    0.14856E-01   -0.47656E-02    32   0.134E+00    0.326E-01
DAV:  10    -0.404774297113E+02   -0.82269E-02   -0.11372E-01    28   0.177E+00    0.416E-01
DAV:  11    -0.404723036159E+02    0.51261E-02   -0.21805E-02    28   0.823E-01    0.120E-01
DAV:  12    -0.404789674538E+02   -0.66638E-02   -0.35519E-03    24   0.426E-01    0.898E-02
DAV:  13    -0.404815619734E+02   -0.25945E-02   -0.13951E-03    24   0.201E-01    0.318E-02
DAV:  14    -0.404832562614E+02   -0.16943E-02   -0.29239E-04    28   0.924E-02    0.326E-02
DAV:  15    -0.404835009989E+02   -0.24474E-03   -0.14681E-04    24   0.771E-02    0.742E-03
DAV:  16    -0.404836570509E+02   -0.15605E-03   -0.20856E-05    28   0.269E-02    0.388E-03
DAV:  17    -0.404836730550E+02   -0.16004E-04   -0.23865E-06    28   0.843E-03
   1 F= -.40483673E+02 E0= -.40483673E+02  d E =-.404837E+02
 curvature:   0.00 expect dE= 0.000E+00 dE for cont linesearch  0.000E+00
 trial: gam= 0.00000 g(F)=  0.197E-01 g(S)=  0.000E+00 ort = 0.000E+00 (trialstep = 0.100E+01)
 search vector abs. value=  0.197E-01
 bond charge predicted
       N       E                     dE             d eps       ncg     rms          rms(c)
DAV:   1    -0.404835700320E+02    0.87019E-04   -0.81261E-01    28   0.745E+00    0.357E-01
DAV:   2    -0.404812037545E+02    0.23663E-02   -0.13251E-02    24   0.795E-01    0.188E-01
DAV:   3    -0.404804650569E+02    0.73870E-03   -0.49922E-03    28   0.401E-01    0.524E-02
DAV:   4    -0.404804545950E+02    0.10462E-04   -0.53081E-04    28   0.131E-01
   2 F= -.40480455E+02 E0= -.40480455E+02  d E =0.321846E-02
 trial-energy change:    0.003218  1 .order    0.002706   -0.019712    0.025124
 step:   0.4229(harm=  0.4396)  dis= 0.00435  next Energy=   -40.487803 (dE=-0.413E-02)
 bond charge predicted
       N       E                     dE             d eps       ncg     rms          rms(c)
DAV:   1    -0.404887804786E+02   -0.83154E-02   -0.27600E-01    28   0.433E+00    0.204E-01
DAV:   2    -0.404881029816E+02    0.67750E-03   -0.45046E-03    24   0.459E-01    0.112E-01
DAV:   3    -0.404878862966E+02    0.21668E-03   -0.19757E-03    28   0.250E-01    0.327E-02
DAV:   4    -0.404878615710E+02    0.24726E-04   -0.21644E-04    28   0.825E-02
   3 F= -.40487862E+02 E0= -.40487862E+02  d E =-.418852E-02
 curvature:  -0.22 expect dE=-0.108E-02 dE for cont linesearch -0.141E-07
 trial: gam= 0.24859 g(F)=  0.494E-02 g(S)=  0.000E+00 ort = 0.355E-04 (trialstep = 0.885E+00)
 search vector abs. value=  0.617E-02
 bond charge predicted
       N       E                     dE             d eps       ncg     rms          rms(c)
DAV:   1    -0.404896837296E+02   -0.17974E-02   -0.31742E-01    24   0.448E+00    0.146E-01
DAV:   2    -0.404891097823E+02    0.57395E-03   -0.26362E-03    24   0.433E-01    0.818E-02
DAV:   3    -0.404890478931E+02    0.61889E-04   -0.26245E-03    24   0.300E-01    0.422E-02
DAV:   4    -0.404889847667E+02    0.63126E-04   -0.31710E-04    24   0.105E-01
   4 F= -.40488985E+02 E0= -.40488985E+02  d E =-.112320E-02
 trial-energy change:   -0.001123  1 .order   -0.001162   -0.004374    0.002051
 step:   0.6022(harm=  0.6022)  dis= 0.00483  next Energy=   -40.489350 (dE=-0.149E-02)
 bond charge predicted
       N       E                     dE             d eps       ncg     rms          rms(c)
DAV:   1    -0.404894112761E+02   -0.36338E-03   -0.32977E-02    24   0.144E+00    0.528E-02
DAV:   2    -0.404893215053E+02    0.89771E-04   -0.30328E-04    24   0.143E-01
   5 F= -.40489322E+02 E0= -.40489322E+02  d E =-.145993E-02
 curvature:  -0.38 expect dE=-0.120E-03 dE for cont linesearch -0.570E-05
 trial: gam= 0.12651 g(F)=  0.320E-03 g(S)=  0.000E+00 ort =-0.306E-03 (trialstep = 0.828E+00)
 search vector abs. value=  0.341E-03
 reached required accuracy - stopping structural energy minimisation
 writing wavefunctions
NPROCS =  1
