   8   8   0   0
  0.6400000E+02  0.8000000E-09  0.8000000E-09  0.8000000E-09  0.5000000E-15
  1.000000000000000E-004
  CAR 
 unknown system                          
      3.52370782    -20.08529376  301     -6.70670583      1.00000000
    -20.085  0.0000E+00  0.0000E+00
    -20.007  0.0000E+00  0.0000E+00
    -19.928  0.0000E+00  0.0000E+00
    -19.849  0.0000E+00  0.0000E+00
    -19.771  0.0000E+00  0.0000E+00
    -19.692  0.0000E+00  0.0000E+00
    -19.613  0.0000E+00  0.0000E+00
    -19.534  0.0000E+00  0.0000E+00
    -19.456  0.0000E+00  0.0000E+00
    -19.377  0.0000E+00  0.0000E+00
    -19.298  0.0000E+00  0.0000E+00
    -19.220  0.1270E-14  0.9992E-16
    -19.141  0.1050E-12  0.8360E-14
    -19.062  0.6138E-11  0.4914E-12
    -18.984  0.2646E-09  0.2131E-10
    -18.905  0.8406E-08  0.6828E-09
    -18.826  0.1969E-06  0.1618E-07
    -18.747  0.3402E-05  0.2839E-06
    -18.669  0.4336E-04  0.3696E-05
    -18.590  0.4080E-03  0.3581E-04
    -18.511  0.2835E-02  0.2589E-03
    -18.433  0.1455E-01  0.1404E-02
    -18.354  0.5517E-01  0.5746E-02
    -18.275  0.1546E+00  0.1792E-01
    -18.197  0.3205E+00  0.4314E-01
    -18.118  0.4910E+00  0.8178E-01
    -18.039  0.5564E+00  0.1256E+00
    -17.960  0.4662E+00  0.1623E+00
    -17.882  0.2889E+00  0.1850E+00
    -17.803  0.1324E+00  0.1954E+00
    -17.724  0.4483E-01  0.1989E+00
    -17.646  0.1122E-01  0.1998E+00
    -17.567  0.2076E-02  0.2000E+00
    -17.488  0.2836E-03  0.2000E+00
    -17.410  0.2861E-04  0.2000E+00
    -17.331  0.2130E-05  0.2000E+00
    -17.252  0.1170E-06  0.2000E+00
    -17.174  0.4740E-08  0.2000E+00
    -17.095  0.1416E-09  0.2000E+00
    -17.016  0.3116E-11  0.2000E+00
    -16.937  0.5079E-13  0.2000E+00
    -16.859  0.5643E-15  0.2000E+00
    -16.780  0.0000E+00  0.2000E+00
    -16.701  0.0000E+00  0.2000E+00
    -16.623  0.0000E+00  0.2000E+00
    -16.544  0.0000E+00  0.2000E+00
    -16.465  0.0000E+00  0.2000E+00
    -16.387  0.0000E+00  0.2000E+00
    -16.308  0.0000E+00  0.2000E+00
    -16.229  0.0000E+00  0.2000E+00
    -16.150  0.0000E+00  0.2000E+00
    -16.072  0.0000E+00  0.2000E+00
    -15.993  0.0000E+00  0.2000E+00
    -15.914  0.0000E+00  0.2000E+00
    -15.836  0.0000E+00  0.2000E+00
    -15.757  0.0000E+00  0.2000E+00
    -15.678  0.7054E-15  0.2000E+00
    -15.600  0.6109E-13  0.2000E+00
    -15.521  0.3710E-11  0.2000E+00
    -15.442  0.1663E-09  0.2000E+00
    -15.363  0.5493E-08  0.2000E+00
    -15.285  0.1338E-06  0.2000E+00
    -15.206  0.2403E-05  0.2000E+00
    -15.127  0.3185E-04  0.2000E+00
    -15.049  0.3115E-03  0.2000E+00
    -14.970  0.2250E-02  0.2002E+00
    -14.891  0.1200E-01  0.2011E+00
    -14.813  0.4731E-01  0.2049E+00
    -14.734  0.1378E+00  0.2157E+00
    -14.655  0.2969E+00  0.2391E+00
    -14.577  0.4728E+00  0.2763E+00
    -14.498  0.5568E+00  0.3201E+00
    -14.419  0.4850E+00  0.3583E+00
    -14.340  0.3123E+00  0.3829E+00
    -14.262  0.1487E+00  0.3946E+00
    -14.183  0.5236E-01  0.3987E+00
    -14.104  0.1363E-01  0.3998E+00
    -14.026  0.2620E-02  0.4000E+00
    -13.947  0.3721E-03  0.4000E+00
    -13.868  0.3902E-04  0.4000E+00
    -13.790  0.3020E-05  0.4000E+00
    -13.711  0.1725E-06  0.4000E+00
    -13.632  0.7266E-08  0.4000E+00
    -13.553  0.2257E-09  0.4000E+00
    -13.475  0.5166E-11  0.4000E+00
    -13.396  0.8690E-13  0.4000E+00
    -13.317  0.1129E-14  0.4000E+00
    -13.239  0.0000E+00  0.4000E+00
    -13.160  0.0000E+00  0.4000E+00
    -13.081  0.0000E+00  0.4000E+00
    -13.003  0.0000E+00  0.4000E+00
    -12.924  0.0000E+00  0.4000E+00
    -12.845  0.0000E+00  0.4000E+00
    -12.767  0.0000E+00  0.4000E+00
    -12.688  0.0000E+00  0.4000E+00
    -12.609  0.0000E+00  0.4000E+00
    -12.530  0.0000E+00  0.4000E+00
    -12.452  0.0000E+00  0.4000E+00
    -12.373  0.0000E+00  0.4000E+00
    -12.294  0.0000E+00  0.4000E+00
    -12.216  0.0000E+00  0.4000E+00
    -12.137  0.0000E+00  0.4000E+00
    -12.058  0.0000E+00  0.4000E+00
    -11.980  0.0000E+00  0.4000E+00
    -11.901  0.0000E+00  0.4000E+00
    -11.822  0.0000E+00  0.4000E+00
    -11.743  0.0000E+00  0.4000E+00
    -11.665  0.0000E+00  0.4000E+00
    -11.586  0.0000E+00  0.4000E+00
    -11.507  0.0000E+00  0.4000E+00
    -11.429  0.0000E+00  0.4000E+00
    -11.350  0.0000E+00  0.4000E+00
    -11.271  0.0000E+00  0.4000E+00
    -11.193  0.2257E-14  0.4000E+00
    -11.114  0.1816E-12  0.4000E+00
    -11.035  0.1074E-10  0.4000E+00
    -10.956  0.4677E-09  0.4000E+00
    -10.878  0.1501E-07  0.4000E+00
    -10.799  0.3553E-06  0.4000E+00
    -10.720  0.6203E-05  0.4000E+00
    -10.642  0.7990E-04  0.4000E+00
    -10.563  0.7596E-03  0.4001E+00
    -10.484  0.5333E-02  0.4005E+00
    -10.406  0.2765E-01  0.4027E+00
    -10.327  0.1060E+00  0.4110E+00
    -10.248  0.3001E+00  0.4346E+00
    -10.170  0.6283E+00  0.4841E+00
    -10.091  0.9727E+00  0.5606E+00
    -10.012  0.1114E+01  0.6482E+00
     -9.933  0.9427E+00  0.7224E+00
     -9.855  0.5902E+00  0.7689E+00
     -9.776  0.2732E+00  0.7904E+00
     -9.697  0.9350E-01  0.7977E+00
     -9.619  0.2365E-01  0.7996E+00
     -9.540  0.4420E-02  0.7999E+00
     -9.461  0.6101E-03  0.8000E+00
     -9.383  0.6219E-04  0.8000E+00
     -9.304  0.4679E-05  0.8000E+00
     -9.225  0.2793E-06  0.8000E+00
     -9.146  0.4354E-06  0.8000E+00
     -9.068  0.6782E-05  0.8000E+00
     -8.989  0.7989E-04  0.8000E+00
     -8.910  0.6948E-03  0.8001E+00
     -8.832  0.4462E-02  0.8004E+00
     -8.753  0.2117E-01  0.8021E+00
     -8.674  0.7422E-01  0.8079E+00
     -8.596  0.1923E+00  0.8231E+00
     -8.517  0.3685E+00  0.8521E+00
     -8.438  0.5221E+00  0.8932E+00
     -8.359  0.5471E+00  0.9362E+00
     -8.281  0.4239E+00  0.9696E+00
     -8.202  0.2432E+00  0.9887E+00
     -8.123  0.1054E+00  0.9970E+00
     -8.045  0.4701E-01  0.1001E+01
     -7.966  0.7147E-01  0.1006E+01
     -7.887  0.2060E+00  0.1023E+01
     -7.809  0.4842E+00  0.1061E+01
     -7.730  0.8460E+00  0.1127E+01
     -7.651  0.1094E+01  0.1213E+01
     -7.573  0.1045E+01  0.1296E+01
     -7.494  0.7389E+00  0.1354E+01
     -7.415  0.3862E+00  0.1384E+01
     -7.336  0.1493E+00  0.1396E+01
     -7.258  0.4263E-01  0.1399E+01
     -7.179  0.9000E-02  0.1400E+01
     -7.100  0.1403E-02  0.1400E+01
     -7.022  0.1616E-03  0.1400E+01
     -6.943  0.1374E-04  0.1400E+01
     -6.864  0.8618E-06  0.1400E+01
     -6.786  0.3988E-07  0.1400E+01
     -6.707  0.1361E-08  0.1400E+01
     -6.628  0.3422E-10  0.1400E+01
     -6.549  0.6340E-12  0.1400E+01
     -6.471  0.9029E-14  0.1400E+01
     -6.392  0.0000E+00  0.1400E+01
     -6.313  0.0000E+00  0.1400E+01
     -6.235  0.0000E+00  0.1400E+01
     -6.156  0.0000E+00  0.1400E+01
     -6.077  0.0000E+00  0.1400E+01
     -5.999  0.0000E+00  0.1400E+01
     -5.920  0.0000E+00  0.1400E+01
     -5.841  0.0000E+00  0.1400E+01
     -5.762  0.0000E+00  0.1400E+01
     -5.684  0.0000E+00  0.1400E+01
     -5.605  0.0000E+00  0.1400E+01
     -5.526  0.0000E+00  0.1400E+01
     -5.448  0.0000E+00  0.1400E+01
     -5.369  0.0000E+00  0.1400E+01
     -5.290  0.0000E+00  0.1400E+01
     -5.212  0.0000E+00  0.1400E+01
     -5.133  0.0000E+00  0.1400E+01
     -5.054  0.0000E+00  0.1400E+01
     -4.976  0.0000E+00  0.1400E+01
     -4.897  0.0000E+00  0.1400E+01
     -4.818  0.0000E+00  0.1400E+01
     -4.739  0.0000E+00  0.1400E+01
     -4.661  0.0000E+00  0.1400E+01
     -4.582  0.0000E+00  0.1400E+01
     -4.503  0.0000E+00  0.1400E+01
     -4.425  0.0000E+00  0.1400E+01
     -4.346  0.0000E+00  0.1400E+01
     -4.267  0.0000E+00  0.1400E+01
     -4.189  0.0000E+00  0.1400E+01
     -4.110  0.0000E+00  0.1400E+01
     -4.031  0.0000E+00  0.1400E+01
     -3.952  0.0000E+00  0.1400E+01
     -3.874  0.0000E+00  0.1400E+01
     -3.795  0.0000E+00  0.1400E+01
     -3.716  0.0000E+00  0.1400E+01
     -3.638  0.0000E+00  0.1400E+01
     -3.559  0.0000E+00  0.1400E+01
     -3.480  0.0000E+00  0.1400E+01
     -3.402  0.0000E+00  0.1400E+01
     -3.323  0.0000E+00  0.1400E+01
     -3.244  0.0000E+00  0.1400E+01
     -3.166  0.0000E+00  0.1400E+01
     -3.087  0.0000E+00  0.1400E+01
     -3.008  0.0000E+00  0.1400E+01
     -2.929  0.0000E+00  0.1400E+01
     -2.851  0.0000E+00  0.1400E+01
     -2.772  0.0000E+00  0.1400E+01
     -2.693  0.0000E+00  0.1400E+01
     -2.615  0.0000E+00  0.1400E+01
     -2.536  0.0000E+00  0.1400E+01
     -2.457  0.0000E+00  0.1400E+01
     -2.379  0.0000E+00  0.1400E+01
     -2.300  0.0000E+00  0.1400E+01
     -2.221  0.0000E+00  0.1400E+01
     -2.142  0.0000E+00  0.1400E+01
     -2.064  0.0000E+00  0.1400E+01
     -1.985  0.0000E+00  0.1400E+01
     -1.906  0.0000E+00  0.1400E+01
     -1.828  0.0000E+00  0.1400E+01
     -1.749  0.1411E-15  0.1400E+01
     -1.670  0.9593E-14  0.1400E+01
     -1.592  0.6710E-12  0.1400E+01
     -1.513  0.3424E-10  0.1400E+01
     -1.434  0.1288E-08  0.1400E+01
     -1.355  0.3571E-07  0.1400E+01
     -1.277  0.7300E-06  0.1400E+01
     -1.198  0.1101E-04  0.1400E+01
     -1.119  0.1225E-03  0.1400E+01
     -1.041  0.1007E-02  0.1400E+01
     -0.962  0.6110E-02  0.1401E+01
     -0.883  0.2739E-01  0.1403E+01
     -0.805  0.9076E-01  0.1410E+01
     -0.726  0.2223E+00  0.1427E+01
     -0.647  0.4025E+00  0.1459E+01
     -0.569  0.5389E+00  0.1501E+01
     -0.490  0.5337E+00  0.1543E+01
     -0.411  0.3908E+00  0.1574E+01
     -0.332  0.2116E+00  0.1591E+01
     -0.254  0.8471E-01  0.1598E+01
     -0.175  0.2507E-01  0.1599E+01
     -0.096  0.5482E-02  0.1600E+01
     -0.018  0.8857E-03  0.1600E+01
      0.061  0.1057E-03  0.1600E+01
      0.140  0.9308E-05  0.1600E+01
      0.218  0.6050E-06  0.1600E+01
      0.297  0.2901E-07  0.1600E+01
      0.376  0.1030E-08  0.1600E+01
      0.455  0.2297E-09  0.1600E+01
      0.533  0.6968E-08  0.1600E+01
      0.612  0.1771E-06  0.1600E+01
      0.691  0.3334E-05  0.1600E+01
      0.769  0.4658E-04  0.1600E+01
      0.848  0.4834E-03  0.1600E+01
      0.927  0.3733E-02  0.1600E+01
      1.005  0.2149E-01  0.1602E+01
      1.084  0.9247E-01  0.1609E+01
      1.163  0.2984E+00  0.1633E+01
      1.242  0.7255E+00  0.1690E+01
      1.320  0.1337E+01  0.1795E+01
      1.399  0.1881E+01  0.1943E+01
      1.478  0.2039E+01  0.2104E+01
      1.556  0.1718E+01  0.2239E+01
      1.635  0.1132E+01  0.2328E+01
      1.714  0.5850E+00  0.2374E+01
      1.792  0.2362E+00  0.2392E+01
      1.871  0.7392E-01  0.2398E+01
      1.950  0.1776E-01  0.2400E+01
      2.028  0.3246E-02  0.2400E+01
      2.107  0.4471E-03  0.2400E+01
      2.186  0.4612E-04  0.2400E+01
      2.265  0.3547E-05  0.2400E+01
      2.343  0.2025E-06  0.2400E+01
      2.422  0.8569E-08  0.2400E+01
      2.501  0.2681E-09  0.2400E+01
      2.579  0.6193E-11  0.2400E+01
      2.658  0.1055E-12  0.2400E+01
      2.737  0.1129E-14  0.2400E+01
      2.815  0.0000E+00  0.2400E+01
      2.894  0.0000E+00  0.2400E+01
      2.973  0.0000E+00  0.2400E+01
      3.052  0.0000E+00  0.2400E+01
      3.130  0.0000E+00  0.2400E+01
      3.209  0.0000E+00  0.2400E+01
      3.288  0.0000E+00  0.2400E+01
      3.366  0.0000E+00  0.2400E+01
      3.445  0.0000E+00  0.2400E+01
      3.524  0.0000E+00  0.2400E+01
