    8    8   10    1
  0.6400000E+02  0.8000000E-09  0.8000000E-09  0.8000000E-09  0.5000000E-15
  1.000000000000000E-004
  CAR 
 unknown system                          
   14    1   12
 
  0.0000000E+00  0.0000000E+00  0.0000000E+00  0.1000000E+01
   1      -18.085294
   2      -14.533875
   3      -10.055699
   4      -10.055388
   5       -8.426031
   6       -7.663086
   7       -7.662889
   8       -0.571089
   9        1.364393
  10        1.392220
  11        1.430502
  12        1.523708
