<?xml version="1.0" encoding="ISO-8859-1"?>
<modeling>
 <generator>
  <i name="program" type="string">vasp </i>
  <i name="version" type="string">5.2.12  </i>
  <i name="subversion" type="string">11Nov11 complex                                                      parallel </i>
  <i name="platform" type="string">LinuxIFC </i>
  <i name="date" type="string">2012 11 03 </i>
  <i name="time" type="string">00:25:02 </i>
 </generator>
 <incar>
  <i type="string" name="PREC">normal</i>
  <i type="int" name="IBRION">     2</i>
  <i type="int" name="NSW">    10</i>
  <i name="ENCUT">    400.00000000</i>
  <i type="int" name="ISMEAR">     0</i>
 </incar>
 <kpoints>
  <generation param="Monkhorst-Pack">
   <v type="int" name="divisions">       1        1        1 </v>
   <v name="usershift">      0.00000000       0.00000000       0.00000000 </v>
   <v name="genvec1">      1.00000000       0.00000000       0.00000000 </v>
   <v name="genvec2">      0.00000000       1.00000000       0.00000000 </v>
   <v name="genvec3">      0.00000000       0.00000000       1.00000000 </v>
   <v name="shift">      0.00000000       0.00000000       0.00000000 </v>
  </generation>
  <varray name="kpointlist" >
   <v>       0.00000000       0.00000000       0.00000000 </v>
  </varray>
  <varray name="weights" >
   <v>       1.00000000 </v>
  </varray>
 </kpoints>
 <parameters>
  <separator name="general" >
   <i type="string" name="SYSTEM">unknown system</i>
   <i type="logical" name="LCOMPAT"> F  </i>
  </separator>
  <separator name="electronic" >
   <i type="string" name="PREC">normal</i>
   <i name="ENMAX">    400.00000000</i>
   <i name="ENAUG">    644.87300000</i>
   <i name="EDIFF">      0.00010000</i>
   <i type="int" name="IALGO">    38</i>
   <i type="int" name="IWAVPR">    11</i>
   <i type="int" name="NBANDS">    12</i>
   <i name="NELECT">     14.00000000</i>
   <i type="int" name="TURBO">     0</i>
   <i type="int" name="IRESTART">     0</i>
   <i type="int" name="NREBOOT">     0</i>
   <i type="int" name="NMIN">     0</i>
   <i name="EREF">      0.00000000</i>
   <separator name="electronic smearing" >
    <i type="int" name="ISMEAR">     0</i>
    <i name="SIGMA">      0.20000000</i>
    <i name="KSPACING">      0.50000000</i>
    <i type="logical" name="KGAMMA"> T  </i>
   </separator>
   <separator name="electronic projectors" >
    <i type="logical" name="LREAL"> F  </i>
    <v name="ROPT">      0.00000000      0.00000000</v>
    <i type="int" name="LMAXPAW">  -100</i>
    <i type="int" name="LMAXMIX">     2</i>
    <i type="logical" name="NLSPLINE"> F  </i>
   </separator>
   <separator name="electronic startup" >
    <i type="int" name="ISTART">     0</i>
    <i type="int" name="ICHARG">     2</i>
    <i type="int" name="INIWAV">     1</i>
   </separator>
   <separator name="electronic spin" >
    <i type="int" name="ISPIN">     1</i>
    <i type="logical" name="LNONCOLLINEAR"> F  </i>
    <v name="MAGMOM">      1.00000000      1.00000000      1.00000000      1.00000000      1.00000000      1.00000000      1.00000000      1.00000000</v>
    <i name="NUPDOWN">     -1.00000000</i>
    <i type="logical" name="LSORBIT"> F  </i>
    <v name="SAXIS">      0.00000000      0.00000000      1.00000000</v>
    <i type="logical" name="LSPIRAL"> F  </i>
    <v name="QSPIRAL">      0.00000000      0.00000000      0.00000000</v>
    <i type="logical" name="LZEROZ"> F  </i>
   </separator>
   <separator name="electronic exchange-correlation" >
    <i type="logical" name="LASPH"> F  </i>
    <i type="logical" name="LMETAGGA"> F  </i>
   </separator>
   <separator name="electronic convergence" >
    <i type="int" name="NELM">    60</i>
    <i type="int" name="NELMDL">    -5</i>
    <i type="int" name="NELMIN">     2</i>
    <i name="ENINI">    400.00000000</i>
    <separator name="electronic convergence detail" >
     <i type="logical" name="LDIAG"> T  </i>
     <i type="logical" name="LSUBROT"> T  </i>
     <i name="WEIMIN">      0.00100000</i>
     <i name="EBREAK">      0.00000208</i>
     <i name="DEPER">      0.30000000</i>
     <i type="int" name="NRMM">     4</i>
     <i name="TIME">      0.40000000</i>
    </separator>
   </separator>
   <separator name="electronic mixer" >
    <i name="AMIX">      0.40000000</i>
    <i name="BMIX">      1.00000000</i>
    <i name="AMIN">      0.10000000</i>
    <i name="AMIX_MAG">      1.60000000</i>
    <i name="BMIX_MAG">      1.00000000</i>
    <separator name="electronic mixer details" >
     <i type="int" name="IMIX">     4</i>
     <i type="int" name="MAXMIX">   -45</i>
     <i name="WC">    100.00000000</i>
     <i type="int" name="INIMIX">     1</i>
     <i type="int" name="MIXPRE">     1</i>
     <i type="int" name="MREMOVE">     5</i>
    </separator>
   </separator>
   <separator name="electronic dipolcorrection" >
    <i type="logical" name="LDIPOL"> F  </i>
    <i type="logical" name="LMONO"> F  </i>
    <i type="int" name="IDIPOL">     0</i>
    <i name="EPSILON">      1.00000000</i>
    <v name="DIPOL">   -100.00000000   -100.00000000   -100.00000000</v>
    <i name="EFIELD">      0.00000000</i>
   </separator>
  </separator>
  <separator name="grids" >
   <i type="int" name="NGX">    40</i>
   <i type="int" name="NGY">    40</i>
   <i type="int" name="NGZ">    40</i>
   <i type="int" name="NGXF">    80</i>
   <i type="int" name="NGYF">    80</i>
   <i type="int" name="NGZF">    80</i>
   <i type="logical" name="ADDGRID"> F  </i>
  </separator>
  <separator name="ionic" >
   <i type="int" name="NSW">    10</i>
   <i type="int" name="IBRION">     2</i>
   <i type="int" name="ISIF">     2</i>
   <i name="PSTRESS">      0.00000000</i>
   <i name="EDIFFG">      0.00100000</i>
   <i type="int" name="NFREE">     1</i>
   <i name="POTIM">      0.50000000</i>
   <i name="SMASS">     -3.00000000</i>
   <i name="SCALEE">      1.00000000</i>
  </separator>
  <separator name="ionic md" >
   <i name="TEBEG">      0.00010000</i>
   <i name="TEEND">      0.00010000</i>
   <i type="int" name="NBLOCK">     1</i>
   <i type="int" name="KBLOCK">    10</i>
   <i type="int" name="NPACO">   256</i>
   <i name="APACO">     16.00000000</i>
  </separator>
  <separator name="symmetry" >
   <i type="int" name="ISYM">     2</i>
   <i name="SYMPREC">      0.00001000</i>
  </separator>
  <separator name="dos" >
   <i type="logical" name="LORBIT"> F  </i>
   <v name="RWIGS">     -1.00000000     -1.00000000</v>
   <i type="int" name="NEDOS">   301</i>
   <i name="EMIN">     10.00000000</i>
   <i name="EMAX">    -10.00000000</i>
   <i name="EFERMI">      0.00000000</i>
  </separator>
  <separator name="writing" >
   <i type="int" name="NWRITE">     2</i>
   <i type="logical" name="LWAVE"> T  </i>
   <i type="logical" name="LCHARG"> T  </i>
   <i type="logical" name="LPARD"> F  </i>
   <i type="logical" name="LVTOT"> F  </i>
   <i type="logical" name="LVHAR"> F  </i>
   <i type="logical" name="LELF"> F  </i>
   <i type="logical" name="LOPTICS"> F  </i>
   <v name="STM">      0.00000000      0.00000000      0.00000000      0.00000000      0.00000000      0.00000000      0.00000000</v>
  </separator>
  <separator name="performance" >
   <i type="int" name="NPAR">     1</i>
   <i type="int" name="NSIM">     4</i>
   <i type="int" name="NBLK">    -1</i>
   <i type="logical" name="LPLANE"> T  </i>
   <i type="logical" name="LSCALAPACK"> F  </i>
   <i type="logical" name="LSCAAWARE"> F  </i>
   <i type="logical" name="LSCALU"> F  </i>
   <i type="logical" name="LASYNC"> F  </i>
   <i type="logical" name="LORBITALREAL"> F  </i>
  </separator>
  <separator name="miscellaneous" >
   <i type="int" name="IDIOT">     3</i>
   <i type="logical" name="LMUSIC"> F  </i>
   <v name="POMASS">      1.00000000     12.01100000</v>
   <v name="DARWINR">      0.00000000      0.00000000</v>
   <v name="DARWINV">      1.00000000      1.00000000</v>
   <i type="logical" name="LCORR"> T  </i>
  </separator>
  <i type="logical" name="GGA_COMPAT"> T  </i>
  <i type="logical" name="LBERRY"> F  </i>
  <i type="int" name="ICORELEVEL">     0</i>
  <i type="logical" name="LDAU"> F  </i>
  <i type="int" name="I_CONSTRAINED_M">     0</i>
  <separator name="electronic exchange-correlation" >
   <i type="string" name="GGA">--</i>
   <i type="int" name="VOSKOWN">     0</i>
   <i type="logical" name="LHFCALC"> F  </i>
   <i type="string" name="PRECFOCK"></i>
   <i type="logical" name="LHFONE"> F  </i>
   <i type="logical" name="LRHFCALC"> F  </i>
   <i type="logical" name="LTHOMAS"> F  </i>
   <i type="logical" name="LMODELHF"> F  </i>
   <i name="ENCUT4O">     -1.00000000</i>
   <i type="int" name="EXXOEP">     0</i>
   <i type="int" name="FOURORBIT">     0</i>
   <i name="AEXX">      0.00000000</i>
   <i name="HFALPHA">      0.00000000</i>
   <i name="ALDAX">      1.00000000</i>
   <i name="AGGAX">      1.00000000</i>
   <i name="ALDAC">      1.00000000</i>
   <i name="AGGAC">      1.00000000</i>
   <i type="int" name="NKREDX">     1</i>
   <i type="int" name="NKREDY">     1</i>
   <i type="int" name="NKREDZ">     1</i>
   <i type="logical" name="SHIFTRED"> F  </i>
   <i type="logical" name="ODDONLY"> F  </i>
   <i type="logical" name="EVENONLY"> F  </i>
   <i type="int" name="LMAXFOCK">     0</i>
   <i type="int" name="NMAXFOCKAE">     0</i>
   <i type="logical" name="LFOCKAEDFT"> F  </i>
   <i name="HFSCREEN">      0.00000000</i>
   <i name="HFSCREENC">      0.00000000</i>
  </separator>
  <separator name="vdW DFT" >
   <i type="logical" name="LUSE_VDW"> F  </i>
   <i name="Zab_VDW">     -0.84910000</i>
   <i name="PARAM1">      0.12340000</i>
   <i name="PARAM2">      1.00000000</i>
   <i name="PARAM3">      0.00000000</i>
  </separator>
  <separator name="model GW" >
   <i type="int" name="MODEL_GW">     0</i>
   <i name="MODEL_EPS0">     38.40000000</i>
   <i name="MODEL_ALPHA">      1.00000000</i>
  </separator>
  <separator name="linear response parameters" >
   <i type="logical" name="LEPSILON"> F  </i>
   <i type="logical" name="LRPA"> F  </i>
   <i type="logical" name="LNABLA"> F  </i>
   <i type="logical" name="LVEL"> F  </i>
   <i type="int" name="KINTER">     0</i>
   <i name="CSHIFT">      0.10000000</i>
   <i name="OMEGAMAX">     -1.00000000</i>
  </separator>
  <separator name="orbital magnetization" >
   <i type="logical" name="NUCIND"> F  </i>
   <v name="MAGPOS">      0.00000000      0.00000000      0.00000000</v>
   <i type="logical" name="LNICSALL"> T  </i>
   <i type="logical" name="ORBITALMAG"> F  </i>
   <i type="logical" name="LMAGBLOCH"> F  </i>
   <i type="logical" name="LCHIMAG"> F  </i>
   <i type="logical" name="LGAUGE"> T  </i>
   <i type="int" name="MAGATOM">     0</i>
   <v name="MAGDIPOL">      0.00000000      0.00000000      0.00000000</v>
   <v name="AVECCONST">      0.00000000      0.00000000      0.00000000</v>
  </separator>
  <separator name="response functions" >
   <i type="logical" name="LADDER"> F  </i>
   <i type="logical" name="LHARTREE"> T  </i>
   <i type="int" name="IBSE">     0</i>
   <i type="logical" name="LTCTE"> F  </i>
   <i type="logical" name="LTETE"> F  </i>
   <i type="logical" name="LFXCEPS"> F  </i>
   <i type="logical" name="L2ORDER"> F  </i>
   <i type="logical" name="LUSEW"> F  </i>
   <i name="ENCUTGW">     -2.00000000</i>
   <i name="ENCUTGWSOFT">     -2.00000000</i>
   <i name="ENCUTLF">     -1.00000000</i>
   <i type="int" name="LMAXMP2">    -1</i>
   <i name="SCISSOR">      0.00000000</i>
   <i type="int" name="NOMEGA">     0</i>
   <i type="int" name="NOMEGAR">     0</i>
   <i type="int" name="NBANDSGW">    -1</i>
   <i type="int" name="NBANDSO">    -1</i>
   <i type="int" name="NBANDSV">    -1</i>
   <i name="OPTEMAX">      0.00000000</i>
   <i type="int" name="NELM">     1</i>
   <i type="int" name="DIM">     3</i>
   <i type="int" name="ANTIRES">     0</i>
   <i name="OMEGAMAX">    -30.00000000</i>
   <i name="OMEGATL">   -200.00000000</i>
   <i type="int" name="OMEGAGRID">     0</i>
   <i name="CSHIFT">     -0.10000000</i>
   <i type="logical" name="SELFENERGY"> F  </i>
   <i type="logical" name="LSPECTRAL"> F  </i>
   <i type="logical" name="ODDONLYGW"> F  </i>
   <i type="logical" name="EVENONLYGW"> F  </i>
   <i type="int" name="NKREDLFX">     1</i>
   <i type="int" name="NKREDLFY">     1</i>
   <i type="int" name="NKREDLFZ">     1</i>
   <i type="int" name="MAXMEM">  1800</i>
   <i type="int" name="TELESCOPE">     0</i>
  </separator>
 </parameters>
 <atominfo>
  <atoms>       8 </atoms>
  <types>       2 </types>
  <array name="atoms" >
   <dimension dim="1">ion</dimension>
   <field type="string">element</field>
   <field type="int">atomtype</field>
   <set>
    <rc><c>H </c><c>   1</c></rc>
    <rc><c>H </c><c>   1</c></rc>
    <rc><c>H </c><c>   1</c></rc>
    <rc><c>H </c><c>   1</c></rc>
    <rc><c>H </c><c>   1</c></rc>
    <rc><c>H </c><c>   1</c></rc>
    <rc><c>C </c><c>   2</c></rc>
    <rc><c>C </c><c>   2</c></rc>
   </set>
  </array>
  <array name="atomtypes" >
   <dimension dim="1">type</dimension>
   <field type="int">atomspertype</field>
   <field type="string">element</field>
   <field>mass</field>
   <field>valence</field>
   <field type="string">pseudopotential</field>
   <set>
    <rc><c>   6</c><c>H </c><c>      1.00000000</c><c>      1.00000000</c><c> PAW_PBE H 15Jun2001                    </c></rc>
    <rc><c>   2</c><c>C </c><c>     12.01100000</c><c>      4.00000000</c><c> PAW_PBE C 08Apr2002                    </c></rc>
   </set>
  </array>
 </atominfo>
 <structure name="initialpos" >
  <crystal>
   <varray name="basis" >
    <v>       8.00000000       0.00000000       0.00000000 </v>
    <v>       0.00000000       8.00000000       0.00000000 </v>
    <v>       0.00000000       0.00000000       8.00000000 </v>
   </varray>
   <i name="volume">    512.00000000 </i>
   <varray name="rec_basis" >
    <v>       0.12500000       0.00000000       0.00000000 </v>
    <v>       0.00000000       0.12500000       0.00000000 </v>
    <v>       0.00000000       0.00000000       0.12500000 </v>
   </varray>
  </crystal>
  <varray name="positions" >
   <v>       0.00000000       0.12736963       0.14465362 </v>
   <v>       0.88969462       0.93631513       0.14465362 </v>
   <v>       0.11030538       0.93631513       0.14465362 </v>
   <v>       0.00000000       0.87263037       0.85534638 </v>
   <v>       0.88969462       0.06368487       0.85534638 </v>
   <v>       0.11030538       0.06368487       0.85534638 </v>
   <v>       0.00000000       0.00000000       0.09527612 </v>
   <v>       0.00000000       0.00000000       0.90472388 </v>
  </varray>
 </structure>
 <calculation>
  <scstep>
   <time name="dav">    0.48    0.48</time>
   <time name="total">    1.30    1.30</time>
   <energy>
    <i name="alphaZ">      1.51367591 </i>
    <i name="ewald">    238.82698518 </i>
    <i name="hartreedc">   -467.83007563 </i>
    <i name="XCdc">     41.11769193 </i>
    <i name="pawpsdc">     80.35084045 </i>
    <i name="pawaedc">    -82.70584614 </i>
    <i name="eentropy">      0.00000000 </i>
    <i name="bandstr">   -110.11588083 </i>
    <i name="atom">    369.12624373 </i>
    <i name="e_fr_energy">     70.28363459 </i>
    <i name="e_wo_entrp">     70.28363459 </i>
    <i name="e_0_energy">     70.28363459 </i>
   </energy>
  </scstep>
  <scstep>
   <time name="dav">    0.64    0.64</time>
   <time name="total">    0.64    0.64</time>
   <energy>
    <i name="e_fr_energy">    -23.53789541 </i>
    <i name="e_wo_entrp">    -23.53789541 </i>
    <i name="e_0_energy">    -23.53789541 </i>
   </energy>
  </scstep>
  <scstep>
   <time name="dav">    0.59    0.59</time>
   <time name="total">    0.59    0.60</time>
   <energy>
    <i name="e_fr_energy">    -44.48957371 </i>
    <i name="e_wo_entrp">    -44.48957371 </i>
    <i name="e_0_energy">    -44.48957371 </i>
   </energy>
  </scstep>
  <scstep>
   <time name="dav">    0.59    0.60</time>
   <time name="total">    0.60    0.61</time>
   <energy>
    <i name="e_fr_energy">    -45.94010813 </i>
    <i name="e_wo_entrp">    -45.94010813 </i>
    <i name="e_0_energy">    -45.94010813 </i>
   </energy>
  </scstep>
  <scstep>
   <time name="dav">    0.53    0.53</time>
   <time name="total">    0.66    0.71</time>
   <energy>
    <i name="e_fr_energy">    -45.98090725 </i>
    <i name="e_wo_entrp">    -45.98090725 </i>
    <i name="e_0_energy">    -45.98090725 </i>
   </energy>
  </scstep>
  <scstep>
   <time name="dav">    0.47    0.47</time>
   <time name="total">    1.39    1.41</time>
   <energy>
    <i name="e_fr_energy">    -41.58797712 </i>
    <i name="e_wo_entrp">    -41.58797712 </i>
    <i name="e_0_energy">    -41.58797712 </i>
   </energy>
  </scstep>
  <scstep>
   <time name="dav">    0.53    0.53</time>
   <time name="total">    1.45    1.46</time>
   <energy>
    <i name="e_fr_energy">    -40.70492503 </i>
    <i name="e_wo_entrp">    -40.70492503 </i>
    <i name="e_0_energy">    -40.70492503 </i>
   </energy>
  </scstep>
  <scstep>
   <time name="dav">    0.52    0.52</time>
   <time name="total">    1.45    1.47</time>
   <energy>
    <i name="e_fr_energy">    -40.48405863 </i>
    <i name="e_wo_entrp">    -40.48405863 </i>
    <i name="e_0_energy">    -40.48405863 </i>
   </energy>
  </scstep>
  <scstep>
   <time name="dav">    0.59    0.59</time>
   <time name="total">    1.51    1.52</time>
   <energy>
    <i name="e_fr_energy">    -40.46920278 </i>
    <i name="e_wo_entrp">    -40.46920278 </i>
    <i name="e_0_energy">    -40.46920278 </i>
   </energy>
  </scstep>
  <scstep>
   <time name="dav">    0.53    0.53</time>
   <time name="total">    1.45    1.47</time>
   <energy>
    <i name="e_fr_energy">    -40.47742971 </i>
    <i name="e_wo_entrp">    -40.47742971 </i>
    <i name="e_0_energy">    -40.47742971 </i>
   </energy>
  </scstep>
  <scstep>
   <time name="dav">    0.52    0.52</time>
   <time name="total">    1.44    1.45</time>
   <energy>
    <i name="e_fr_energy">    -40.47230362 </i>
    <i name="e_wo_entrp">    -40.47230362 </i>
    <i name="e_0_energy">    -40.47230362 </i>
   </energy>
  </scstep>
  <scstep>
   <time name="dav">    0.47    0.47</time>
   <time name="total">    1.37    1.38</time>
   <energy>
    <i name="e_fr_energy">    -40.47896745 </i>
    <i name="e_wo_entrp">    -40.47896745 </i>
    <i name="e_0_energy">    -40.47896745 </i>
   </energy>
  </scstep>
  <scstep>
   <time name="dav">    0.47    0.47</time>
   <time name="total">    1.37    1.38</time>
   <energy>
    <i name="e_fr_energy">    -40.48156197 </i>
    <i name="e_wo_entrp">    -40.48156197 </i>
    <i name="e_0_energy">    -40.48156197 </i>
   </energy>
  </scstep>
  <scstep>
   <time name="dav">    0.52    0.52</time>
   <time name="total">    1.43    1.44</time>
   <energy>
    <i name="e_fr_energy">    -40.48325626 </i>
    <i name="e_wo_entrp">    -40.48325626 </i>
    <i name="e_0_energy">    -40.48325626 </i>
   </energy>
  </scstep>
  <scstep>
   <time name="dav">    0.47    0.47</time>
   <time name="total">    1.37    1.38</time>
   <energy>
    <i name="e_fr_energy">    -40.48350100 </i>
    <i name="e_wo_entrp">    -40.48350100 </i>
    <i name="e_0_energy">    -40.48350100 </i>
   </energy>
  </scstep>
  <scstep>
   <time name="dav">    0.53    0.53</time>
   <time name="total">    1.45    1.46</time>
   <energy>
    <i name="e_fr_energy">    -40.48365705 </i>
    <i name="e_wo_entrp">    -40.48365705 </i>
    <i name="e_0_energy">    -40.48365705 </i>
   </energy>
  </scstep>
  <scstep>
   <time name="dav">    0.53    0.53</time>
   <time name="total">    1.32    1.33</time>
   <energy>
    <i name="alphaZ">      1.51367591 </i>
    <i name="ewald">    238.82698518 </i>
    <i name="hartreedc">   -539.38592607 </i>
    <i name="XCdc">     45.51454562 </i>
    <i name="pawpsdc">    169.16173802 </i>
    <i name="pawaedc">   -171.89850286 </i>
    <i name="eentropy">      0.00000000 </i>
    <i name="bandstr">   -153.34243259 </i>
    <i name="atom">    369.12624373 </i>
    <i name="e_fr_energy">    -40.48367305 </i>
    <i name="e_wo_entrp">    -40.48367305 </i>
    <i name="e_0_energy">    -40.48367305 </i>
   </energy>
  </scstep>
  <parameters_embedded>
   <separator name="dft+d2" >
    <i type="logical" name="LVDW"> F  </i>
   </separator>
  </parameters_embedded>
  <structure>
   <crystal>
    <varray name="basis" >
     <v>       8.00000000       0.00000000       0.00000000 </v>
     <v>       0.00000000       8.00000000       0.00000000 </v>
     <v>       0.00000000       0.00000000       8.00000000 </v>
    </varray>
    <i name="volume">    512.00000000 </i>
    <varray name="rec_basis" >
     <v>       0.12500000       0.00000000       0.00000000 </v>
     <v>       0.00000000       0.12500000       0.00000000 </v>
     <v>       0.00000000       0.00000000       0.12500000 </v>
    </varray>
   </crystal>
   <varray name="positions" >
    <v>       0.00000000       0.12736963       0.14465362 </v>
    <v>       0.88969462       0.93631513       0.14465362 </v>
    <v>       0.11030538       0.93631513       0.14465362 </v>
    <v>       0.00000000       0.87263037       0.85534638 </v>
    <v>       0.88969462       0.06368487       0.85534638 </v>
    <v>       0.11030538       0.06368487       0.85534638 </v>
    <v>       0.00000000       0.00000000       0.09527612 </v>
    <v>       0.00000000       0.00000000       0.90472388 </v>
   </varray>
  </structure>
  <varray name="forces" >
   <v>       0.00000000       0.21336771       0.11417597 </v>
   <v>      -0.18580693      -0.10563984       0.11421330 </v>
   <v>       0.18580693      -0.10563984       0.11421330 </v>
   <v>       0.00000000      -0.21336771      -0.11417597 </v>
   <v>      -0.18580693       0.10563984      -0.11421330 </v>
   <v>       0.18580693       0.10563984      -0.11421330 </v>
   <v>       0.00000000       0.00086555      -0.16818328 </v>
   <v>       0.00000000      -0.00086555       0.16818328 </v>
  </varray>
  <varray name="stress" >
   <v>       0.09887285       0.00000000       0.00000000 </v>
   <v>       0.00000000       0.12160125       0.00913566 </v>
   <v>       0.00000000       0.00913617      -0.45077767 </v>
  </varray>
  <energy>
   <i name="e_fr_energy">    -40.48367305 </i>
   <i name="e_wo_entrp">    -40.48367305 </i>
   <i name="e_0_energy">      0.00000000 </i>
  </energy>
  <time name="totalsc">   23.71   24.11</time>
 </calculation>
 <calculation>
  <scstep>
   <time name="dav">    0.53    0.53</time>
   <time name="total">    1.46    1.46</time>
   <energy>
    <i name="alphaZ">      1.51367591 </i>
    <i name="ewald">    235.39467017 </i>
    <i name="hartreedc">   -537.60040821 </i>
    <i name="XCdc">     45.40590157 </i>
    <i name="pawpsdc">    169.16429262 </i>
    <i name="pawaedc">   -171.90102220 </i>
    <i name="eentropy">      0.00000000 </i>
    <i name="bandstr">   -151.58692363 </i>
    <i name="atom">    369.12624373 </i>
    <i name="e_fr_energy">    -40.48357003 </i>
    <i name="e_wo_entrp">    -40.48357003 </i>
    <i name="e_0_energy">    -40.48357003 </i>
   </energy>
  </scstep>
  <scstep>
   <time name="dav">    0.47    0.47</time>
   <time name="total">    1.34    1.34</time>
   <energy>
    <i name="e_fr_energy">    -40.48120375 </i>
    <i name="e_wo_entrp">    -40.48120375 </i>
    <i name="e_0_energy">    -40.48120375 </i>
   </energy>
  </scstep>
  <scstep>
   <time name="dav">    0.53    0.53</time>
   <time name="total">    1.40    1.42</time>
   <energy>
    <i name="e_fr_energy">    -40.48046506 </i>
    <i name="e_wo_entrp">    -40.48046506 </i>
    <i name="e_0_energy">    -40.48046506 </i>
   </energy>
  </scstep>
  <scstep>
   <time name="dav">    0.58    0.58</time>
   <time name="total">    1.34    1.35</time>
   <energy>
    <i name="alphaZ">      1.51367591 </i>
    <i name="ewald">    235.39467017 </i>
    <i name="hartreedc">   -536.41491034 </i>
    <i name="XCdc">     45.33376882 </i>
    <i name="pawpsdc">    165.94869215 </i>
    <i name="pawaedc">   -168.66951537 </i>
    <i name="eentropy">      0.00000000 </i>
    <i name="bandstr">   -152.71307968 </i>
    <i name="atom">    369.12624373 </i>
    <i name="e_fr_energy">    -40.48045459 </i>
    <i name="e_wo_entrp">    -40.48045459 </i>
    <i name="e_0_energy">    -40.48045459 </i>
   </energy>
  </scstep>
  <structure>
   <crystal>
    <varray name="basis" >
     <v>       8.00000000       0.00000000       0.00000000 </v>
     <v>       0.00000000       8.00000000       0.00000000 </v>
     <v>       0.00000000       0.00000000       8.00000000 </v>
    </varray>
    <i name="volume">    512.00000000 </i>
    <varray name="rec_basis" >
     <v>       0.12500000       0.00000000       0.00000000 </v>
     <v>       0.00000000       0.12500000       0.00000000 </v>
     <v>       0.00000000       0.00000000       0.12500000 </v>
    </varray>
   </crystal>
   <varray name="positions" >
    <v>       0.00000000       0.12865630       0.14534214 </v>
    <v>       0.88857415       0.93567808       0.14534237 </v>
    <v>       0.11142585       0.93567808       0.14534237 </v>
    <v>       0.00000000       0.87134370       0.85465786 </v>
    <v>       0.88857415       0.06432192       0.85465763 </v>
    <v>       0.11142585       0.06432192       0.85465763 </v>
    <v>       0.00000000       0.00000522       0.09426192 </v>
    <v>       0.00000000      -0.00000522       0.90573808 </v>
   </varray>
  </structure>
  <varray name="forces" >
   <v>       0.00000000      -0.18873122      -0.06355413 </v>
   <v>       0.16466449       0.09654988      -0.06369213 </v>
   <v>      -0.16466449       0.09654988      -0.06369213 </v>
   <v>       0.00000000       0.18873122       0.06355413 </v>
   <v>       0.16466449      -0.09654988       0.06369213 </v>
   <v>      -0.16466449      -0.09654988       0.06369213 </v>
   <v>       0.00000000      -0.00101083       0.69406727 </v>
   <v>       0.00000000       0.00101083      -0.69406727 </v>
  </varray>
  <varray name="stress" >
   <v>      -3.79695446       0.00000000       0.00000000 </v>
   <v>       0.00000000      -3.75694305       0.01070354 </v>
   <v>       0.00000000       0.01070463      -0.25523829 </v>
  </varray>
  <energy>
   <i name="e_fr_energy">    -40.48045459 </i>
   <i name="e_wo_entrp">    -40.48045459 </i>
   <i name="e_0_energy">      0.00000000 </i>
  </energy>
  <time name="totalsc">    7.84    7.91</time>
 </calculation>
 <calculation>
  <scstep>
   <time name="dav">    0.64    0.64</time>
   <time name="total">    1.75    1.76</time>
   <energy>
    <i name="alphaZ">      1.51367591 </i>
    <i name="ewald">    237.35874541 </i>
    <i name="hartreedc">   -537.35921492 </i>
    <i name="XCdc">     45.39017110 </i>
    <i name="pawpsdc">    165.64405191 </i>
    <i name="pawaedc">   -168.36439596 </i>
    <i name="eentropy">      0.00000000 </i>
    <i name="bandstr">   -153.79805766 </i>
    <i name="atom">    369.12624373 </i>
    <i name="e_fr_energy">    -40.48878048 </i>
    <i name="e_wo_entrp">    -40.48878048 </i>
    <i name="e_0_energy">    -40.48878048 </i>
   </energy>
  </scstep>
  <scstep>
   <time name="dav">    0.55    0.55</time>
   <time name="total">    1.63    1.64</time>
   <energy>
    <i name="e_fr_energy">    -40.48810298 </i>
    <i name="e_wo_entrp">    -40.48810298 </i>
    <i name="e_0_energy">    -40.48810298 </i>
   </energy>
  </scstep>
  <scstep>
   <time name="dav">    0.58    0.58</time>
   <time name="total">    1.62    1.63</time>
   <energy>
    <i name="e_fr_energy">    -40.48788630 </i>
    <i name="e_wo_entrp">    -40.48788630 </i>
    <i name="e_0_energy">    -40.48788630 </i>
   </energy>
  </scstep>
  <scstep>
   <time name="dav">    0.58    0.58</time>
   <time name="total">    1.45    1.46</time>
   <energy>
    <i name="alphaZ">      1.51367591 </i>
    <i name="ewald">    237.35874541 </i>
    <i name="hartreedc">   -538.04306747 </i>
    <i name="XCdc">     45.43239288 </i>
    <i name="pawpsdc">    167.48244139 </i>
    <i name="pawaedc">   -170.21202049 </i>
    <i name="eentropy">      0.00000000 </i>
    <i name="bandstr">   -153.14627294 </i>
    <i name="atom">    369.12624373 </i>
    <i name="e_fr_energy">    -40.48786157 </i>
    <i name="e_wo_entrp">    -40.48786157 </i>
    <i name="e_0_energy">    -40.48786157 </i>
   </energy>
  </scstep>
  <structure>
   <crystal>
    <varray name="basis" >
     <v>       8.00000000       0.00000000       0.00000000 </v>
     <v>       0.00000000       8.00000000       0.00000000 </v>
     <v>       0.00000000       0.00000000       8.00000000 </v>
    </varray>
    <i name="volume">    512.00000000 </i>
    <varray name="rec_basis" >
     <v>       0.12500000       0.00000000       0.00000000 </v>
     <v>       0.00000000       0.12500000       0.00000000 </v>
     <v>       0.00000000       0.00000000       0.12500000 </v>
    </varray>
   </crystal>
   <varray name="positions" >
    <v>       0.00000000       0.12791378       0.14494481 </v>
    <v>       0.88922076       0.93604571       0.14494490 </v>
    <v>       0.11077924       0.93604571       0.14494490 </v>
    <v>       0.00000000       0.87208622       0.85505519 </v>
    <v>       0.88922076       0.06395429       0.85505510 </v>
    <v>       0.11077924       0.06395429       0.85505510 </v>
    <v>       0.00000000       0.00000221       0.09484721 </v>
    <v>       0.00000000      -0.00000221       0.90515279 </v>
   </varray>
  </structure>
  <varray name="forces" >
   <v>       0.00000000       0.03555156       0.03742791 </v>
   <v>      -0.03093225      -0.01630628       0.03740961 </v>
   <v>       0.03093225      -0.01630628       0.03740961 </v>
   <v>       0.00000000      -0.03555156      -0.03742791 </v>
   <v>      -0.03093225       0.01630628      -0.03740961 </v>
   <v>       0.03093225       0.01630628      -0.03740961 </v>
   <v>       0.00000000      -0.00026081       0.20796200 </v>
   <v>       0.00000000       0.00026081      -0.20796200 </v>
  </varray>
  <varray name="stress" >
   <v>      -1.54313586       0.00000000       0.00000000 </v>
   <v>       0.00000000      -1.51259687       0.00993786 </v>
   <v>       0.00000000       0.00993785      -0.25925003 </v>
  </varray>
  <energy>
   <i name="e_fr_energy">    -40.48786157 </i>
   <i name="e_wo_entrp">    -40.48786157 </i>
   <i name="e_0_energy">      0.00000000 </i>
  </energy>
  <time name="totalsc">    8.59    8.70</time>
 </calculation>
 <calculation>
  <scstep>
   <time name="dav">    0.52    0.52</time>
   <time name="total">    1.56    1.56</time>
   <energy>
    <i name="alphaZ">      1.51367591 </i>
    <i name="ewald">    234.46846813 </i>
    <i name="hartreedc">   -535.90773102 </i>
    <i name="XCdc">     45.37596465 </i>
    <i name="pawpsdc">    167.65240395 </i>
    <i name="pawaedc">   -170.38217727 </i>
    <i name="eentropy">      0.00000000 </i>
    <i name="bandstr">   -152.33653181 </i>
    <i name="atom">    369.12624373 </i>
    <i name="e_fr_energy">    -40.48968373 </i>
    <i name="e_wo_entrp">    -40.48968373 </i>
    <i name="e_0_energy">    -40.48968373 </i>
   </energy>
  </scstep>
  <scstep>
   <time name="dav">    0.50    0.50</time>
   <time name="total">    1.54    1.73</time>
   <energy>
    <i name="e_fr_energy">    -40.48910978 </i>
    <i name="e_wo_entrp">    -40.48910978 </i>
    <i name="e_0_energy">    -40.48910978 </i>
   </energy>
  </scstep>
  <scstep>
   <time name="dav">    0.56    0.56</time>
   <time name="total">    1.68    1.69</time>
   <energy>
    <i name="e_fr_energy">    -40.48904789 </i>
    <i name="e_wo_entrp">    -40.48904789 </i>
    <i name="e_0_energy">    -40.48904789 </i>
   </energy>
  </scstep>
  <scstep>
   <time name="dav">    0.56    0.56</time>
   <time name="total">    1.51    1.52</time>
   <energy>
    <i name="alphaZ">      1.51367591 </i>
    <i name="ewald">    234.46846813 </i>
    <i name="hartreedc">   -535.39014309 </i>
    <i name="XCdc">     45.35488261 </i>
    <i name="pawpsdc">    166.27120246 </i>
    <i name="pawaedc">   -168.99357748 </i>
    <i name="eentropy">      0.00000000 </i>
    <i name="bandstr">   -152.83973704 </i>
    <i name="atom">    369.12624373 </i>
    <i name="e_fr_energy">    -40.48898477 </i>
    <i name="e_wo_entrp">    -40.48898477 </i>
    <i name="e_0_energy">    -40.48898477 </i>
   </energy>
  </scstep>
  <structure>
   <crystal>
    <varray name="basis" >
     <v>       8.00000000       0.00000000       0.00000000 </v>
     <v>       0.00000000       8.00000000       0.00000000 </v>
     <v>       0.00000000       0.00000000       8.00000000 </v>
    </varray>
    <i name="volume">    512.00000000 </i>
    <varray name="rec_basis" >
     <v>       0.12500000       0.00000000       0.00000000 </v>
     <v>       0.00000000       0.12500000       0.00000000 </v>
     <v>       0.00000000       0.00000000       0.12500000 </v>
    </varray>
   </crystal>
   <varray name="positions" >
    <v>       0.00000000       0.12838636       0.14529587 </v>
    <v>       0.88880937       0.93581864       0.14529591 </v>
    <v>       0.11119063       0.93581864       0.14529591 </v>
    <v>       0.00000000       0.87161364       0.85470413 </v>
    <v>       0.88880937       0.06418136       0.85470409 </v>
    <v>       0.11119063       0.06418136       0.85470409 </v>
    <v>       0.00000000       0.00000196       0.09573352 </v>
    <v>       0.00000000      -0.00000196       0.90426648 </v>
   </varray>
  </structure>
  <varray name="forces" >
   <v>       0.00000000      -0.04049018       0.02151661 </v>
   <v>       0.03497941       0.02132799       0.02194478 </v>
   <v>      -0.03497941       0.02132799       0.02194478 </v>
   <v>       0.00000000       0.04049018      -0.02151661 </v>
   <v>       0.03497941      -0.02132799      -0.02194478 </v>
   <v>      -0.03497941      -0.02132799      -0.02194478 </v>
   <v>       0.00000000       0.00122800      -0.10553713 </v>
   <v>       0.00000000      -0.00122800       0.10553713 </v>
  </varray>
  <varray name="stress" >
   <v>      -2.17011451       0.00000000       0.00000000 </v>
   <v>       0.00000000      -2.13699530       0.00849193 </v>
   <v>       0.00000000       0.00849187      -2.09860043 </v>
  </varray>
  <energy>
   <i name="e_fr_energy">    -40.48898477 </i>
   <i name="e_wo_entrp">    -40.48898477 </i>
   <i name="e_0_energy">      0.00000000 </i>
  </energy>
  <time name="totalsc">    8.57    8.82</time>
 </calculation>
 <calculation>
  <scstep>
   <time name="dav">    0.56    0.56</time>
   <time name="total">    1.69    1.69</time>
   <energy>
    <i name="alphaZ">      1.51367591 </i>
    <i name="ewald">    235.38770035 </i>
    <i name="hartreedc">   -536.08352367 </i>
    <i name="XCdc">     45.37342300 </i>
    <i name="pawpsdc">    166.13838541 </i>
    <i name="pawaedc">   -168.86103805 </i>
    <i name="eentropy">      0.00000000 </i>
    <i name="bandstr">   -153.08427796 </i>
    <i name="atom">    369.12624373 </i>
    <i name="e_fr_energy">    -40.48941128 </i>
    <i name="e_wo_entrp">    -40.48941128 </i>
    <i name="e_0_energy">    -40.48941128 </i>
   </energy>
  </scstep>
  <scstep>
   <time name="dav">    0.56    0.56</time>
   <time name="total">    1.51    1.52</time>
   <energy>
    <i name="alphaZ">      1.51367591 </i>
    <i name="ewald">    235.38770035 </i>
    <i name="hartreedc">   -536.20639746 </i>
    <i name="XCdc">     45.37818739 </i>
    <i name="pawpsdc">    166.41091395 </i>
    <i name="pawaedc">   -169.13512210 </i>
    <i name="eentropy">      0.00000000 </i>
    <i name="bandstr">   -152.96452328 </i>
    <i name="atom">    369.12624373 </i>
    <i name="e_fr_energy">    -40.48932151 </i>
    <i name="e_wo_entrp">    -40.48932151 </i>
    <i name="e_0_energy">    -40.48932151 </i>
   </energy>
  </scstep>
  <structure>
   <crystal>
    <varray name="basis" >
     <v>       8.00000000       0.00000000       0.00000000 </v>
     <v>       0.00000000       8.00000000       0.00000000 </v>
     <v>       0.00000000       0.00000000       8.00000000 </v>
    </varray>
    <i name="volume">    512.00000000 </i>
    <varray name="rec_basis" >
     <v>       0.12500000       0.00000000       0.00000000 </v>
     <v>       0.00000000       0.12500000       0.00000000 </v>
     <v>       0.00000000       0.00000000       0.12500000 </v>
    </varray>
   </crystal>
   <varray name="positions" >
    <v>       0.00000000       0.12823551       0.14518380 </v>
    <v>       0.88894069       0.93589113       0.14518387 </v>
    <v>       0.11105931       0.93589113       0.14518387 </v>
    <v>       0.00000000       0.87176449       0.85481620 </v>
    <v>       0.88894069       0.06410887       0.85481613 </v>
    <v>       0.11105931       0.06410887       0.85481613 </v>
    <v>       0.00000000       0.00000204       0.09545060 </v>
    <v>       0.00000000      -0.00000204       0.90454940 </v>
   </varray>
  </structure>
  <varray name="forces" >
   <v>       0.00000000      -0.01827891       0.02502682 </v>
   <v>       0.01568487       0.01033793       0.02521059 </v>
   <v>      -0.01568487       0.01033793       0.02521059 </v>
   <v>       0.00000000       0.01827891      -0.02502682 </v>
   <v>       0.01568487      -0.01033793      -0.02521059 </v>
   <v>      -0.01568487      -0.01033793      -0.02521059 </v>
   <v>       0.00000000       0.00060519      -0.01935504 </v>
   <v>       0.00000000      -0.00060519       0.01935504 </v>
  </varray>
  <varray name="stress" >
   <v>      -1.83460994       0.00000000       0.00000000 </v>
   <v>       0.00000000      -1.80231736       0.00901561 </v>
   <v>       0.00000000       0.00901543      -1.48091212 </v>
  </varray>
  <energy>
   <i name="e_fr_energy">    -40.48932151 </i>
   <i name="e_wo_entrp">    -40.48932151 </i>
   <i name="e_0_energy">      0.00000000 </i>
  </energy>
  <time name="totalsc">    5.06    5.11</time>
  <eigenvalues>
   <array>
    <dimension dim="1">band</dimension>
    <dimension dim="2">kpoint</dimension>
    <dimension dim="3">spin</dimension>
    <field>eigene</field>
    <field>occ</field>
    <set>
     <set comment="spin 1">
      <set comment="kpoint 1">
       <r>  -18.0853    1.0000 </r>
       <r>  -14.5339    1.0000 </r>
       <r>  -10.0557    1.0000 </r>
       <r>  -10.0554    1.0000 </r>
       <r>   -8.4260    1.0000 </r>
       <r>   -7.6631    1.0000 </r>
       <r>   -7.6629    1.0000 </r>
       <r>   -0.5711    0.0000 </r>
       <r>    1.3644    0.0000 </r>
       <r>    1.3922    0.0000 </r>
       <r>    1.4305    0.0000 </r>
       <r>    1.5237    0.0000 </r>
      </set>
     </set>
    </set>
   </array>
  </eigenvalues>
  <separator name="orbital magnetization" >
   <v name="MAGDIPOLOUT">      0.00000000      0.00000000      0.00000000</v>
  </separator>
  <dos>
   <i name="efermi">     -6.70670583 </i>
   <total>
    <array>
     <dimension dim="1">gridpoints</dimension>
     <dimension dim="2">spin</dimension>
     <field>energy</field>
     <field>total</field>
     <field>integrated</field>
     <set>
      <set comment="spin 1">
       <r>   -20.0853     0.0000     0.0000 </r>
       <r>   -20.0066     0.0000     0.0000 </r>
       <r>   -19.9279     0.0000     0.0000 </r>
       <r>   -19.8492     0.0000     0.0000 </r>
       <r>   -19.7705     0.0000     0.0000 </r>
       <r>   -19.6918     0.0000     0.0000 </r>
       <r>   -19.6131     0.0000     0.0000 </r>
       <r>   -19.5344     0.0000     0.0000 </r>
       <r>   -19.4557     0.0000     0.0000 </r>
       <r>   -19.3770     0.0000     0.0000 </r>
       <r>   -19.2983     0.0000     0.0000 </r>
       <r>   -19.2196     0.0000     0.0000 </r>
       <r>   -19.1409     0.0000     0.0000 </r>
       <r>   -19.0622     0.0000     0.0000 </r>
       <r>   -18.9835     0.0000     0.0000 </r>
       <r>   -18.9048     0.0000     0.0000 </r>
       <r>   -18.8261     0.0000     0.0000 </r>
       <r>   -18.7475     0.0000     0.0000 </r>
       <r>   -18.6688     0.0004     0.0000 </r>
       <r>   -18.5901     0.0041     0.0004 </r>
       <r>   -18.5114     0.0283     0.0026 </r>
       <r>   -18.4327     0.1455     0.0140 </r>
       <r>   -18.3540     0.5517     0.0575 </r>
       <r>   -18.2753     1.5465     0.1792 </r>
       <r>   -18.1966     3.2047     0.4314 </r>
       <r>   -18.1179     4.9103     0.8178 </r>
       <r>   -18.0392     5.5637     1.2556 </r>
       <r>   -17.9605     4.6620     1.6225 </r>
       <r>   -17.8818     2.8888     1.8499 </r>
       <r>   -17.8031     1.3235     1.9540 </r>
       <r>   -17.7244     0.4483     1.9893 </r>
       <r>   -17.6457     0.1122     1.9981 </r>
       <r>   -17.5670     0.0208     1.9998 </r>
       <r>   -17.4883     0.0028     2.0000 </r>
       <r>   -17.4096     0.0003     2.0000 </r>
       <r>   -17.3309     0.0000     2.0000 </r>
       <r>   -17.2522     0.0000     2.0000 </r>
       <r>   -17.1735     0.0000     2.0000 </r>
       <r>   -17.0948     0.0000     2.0000 </r>
       <r>   -17.0161     0.0000     2.0000 </r>
       <r>   -16.9374     0.0000     2.0000 </r>
       <r>   -16.8587     0.0000     2.0000 </r>
       <r>   -16.7800     0.0000     2.0000 </r>
       <r>   -16.7013     0.0000     2.0000 </r>
       <r>   -16.6226     0.0000     2.0000 </r>
       <r>   -16.5439     0.0000     2.0000 </r>
       <r>   -16.4652     0.0000     2.0000 </r>
       <r>   -16.3866     0.0000     2.0000 </r>
       <r>   -16.3079     0.0000     2.0000 </r>
       <r>   -16.2292     0.0000     2.0000 </r>
       <r>   -16.1505     0.0000     2.0000 </r>
       <r>   -16.0718     0.0000     2.0000 </r>
       <r>   -15.9931     0.0000     2.0000 </r>
       <r>   -15.9144     0.0000     2.0000 </r>
       <r>   -15.8357     0.0000     2.0000 </r>
       <r>   -15.7570     0.0000     2.0000 </r>
       <r>   -15.6783     0.0000     2.0000 </r>
       <r>   -15.5996     0.0000     2.0000 </r>
       <r>   -15.5209     0.0000     2.0000 </r>
       <r>   -15.4422     0.0000     2.0000 </r>
       <r>   -15.3635     0.0000     2.0000 </r>
       <r>   -15.2848     0.0000     2.0000 </r>
       <r>   -15.2061     0.0000     2.0000 </r>
       <r>   -15.1274     0.0003     2.0000 </r>
       <r>   -15.0487     0.0031     2.0003 </r>
       <r>   -14.9700     0.0225     2.0020 </r>
       <r>   -14.8913     0.1200     2.0115 </r>
       <r>   -14.8126     0.4731     2.0487 </r>
       <r>   -14.7339     1.3785     2.1572 </r>
       <r>   -14.6552     2.9690     2.3909 </r>
       <r>   -14.5765     4.7283     2.7630 </r>
       <r>   -14.4978     5.5685     3.2012 </r>
       <r>   -14.4191     4.8497     3.5828 </r>
       <r>   -14.3404     3.1233     3.8286 </r>
       <r>   -14.2617     1.4874     3.9457 </r>
       <r>   -14.1830     0.5236     3.9869 </r>
       <r>   -14.1043     0.1363     3.9976 </r>
       <r>   -14.0257     0.0262     3.9997 </r>
       <r>   -13.9470     0.0037     4.0000 </r>
       <r>   -13.8683     0.0004     4.0000 </r>
       <r>   -13.7896     0.0000     4.0000 </r>
       <r>   -13.7109     0.0000     4.0000 </r>
       <r>   -13.6322     0.0000     4.0000 </r>
       <r>   -13.5535     0.0000     4.0000 </r>
       <r>   -13.4748     0.0000     4.0000 </r>
       <r>   -13.3961     0.0000     4.0000 </r>
       <r>   -13.3174     0.0000     4.0000 </r>
       <r>   -13.2387     0.0000     4.0000 </r>
       <r>   -13.1600     0.0000     4.0000 </r>
       <r>   -13.0813     0.0000     4.0000 </r>
       <r>   -13.0026     0.0000     4.0000 </r>
       <r>   -12.9239     0.0000     4.0000 </r>
       <r>   -12.8452     0.0000     4.0000 </r>
       <r>   -12.7665     0.0000     4.0000 </r>
       <r>   -12.6878     0.0000     4.0000 </r>
       <r>   -12.6091     0.0000     4.0000 </r>
       <r>   -12.5304     0.0000     4.0000 </r>
       <r>   -12.4517     0.0000     4.0000 </r>
       <r>   -12.3730     0.0000     4.0000 </r>
       <r>   -12.2943     0.0000     4.0000 </r>
       <r>   -12.2156     0.0000     4.0000 </r>
       <r>   -12.1369     0.0000     4.0000 </r>
       <r>   -12.0582     0.0000     4.0000 </r>
       <r>   -11.9795     0.0000     4.0000 </r>
       <r>   -11.9008     0.0000     4.0000 </r>
       <r>   -11.8221     0.0000     4.0000 </r>
       <r>   -11.7434     0.0000     4.0000 </r>
       <r>   -11.6647     0.0000     4.0000 </r>
       <r>   -11.5861     0.0000     4.0000 </r>
       <r>   -11.5074     0.0000     4.0000 </r>
       <r>   -11.4287     0.0000     4.0000 </r>
       <r>   -11.3500     0.0000     4.0000 </r>
       <r>   -11.2713     0.0000     4.0000 </r>
       <r>   -11.1926     0.0000     4.0000 </r>
       <r>   -11.1139     0.0000     4.0000 </r>
       <r>   -11.0352     0.0000     4.0000 </r>
       <r>   -10.9565     0.0000     4.0000 </r>
       <r>   -10.8778     0.0000     4.0000 </r>
       <r>   -10.7991     0.0000     4.0000 </r>
       <r>   -10.7204     0.0001     4.0000 </r>
       <r>   -10.6417     0.0008     4.0001 </r>
       <r>   -10.5630     0.0076     4.0007 </r>
       <r>   -10.4843     0.0533     4.0049 </r>
       <r>   -10.4056     0.2765     4.0266 </r>
       <r>   -10.3269     1.0596     4.1100 </r>
       <r>   -10.2482     3.0009     4.3462 </r>
       <r>   -10.1695     6.2829     4.8406 </r>
       <r>   -10.0908     9.7267     5.6061 </r>
       <r>   -10.0121    11.1354     6.4824 </r>
       <r>    -9.9334     9.4274     7.2243 </r>
       <r>    -9.8547     5.9022     7.6888 </r>
       <r>    -9.7760     2.7322     7.9038 </r>
       <r>    -9.6973     0.9350     7.9774 </r>
       <r>    -9.6186     0.2365     7.9960 </r>
       <r>    -9.5399     0.0442     7.9995 </r>
       <r>    -9.4612     0.0061     7.9999 </r>
       <r>    -9.3825     0.0006     8.0000 </r>
       <r>    -9.3038     0.0000     8.0000 </r>
       <r>    -9.2252     0.0000     8.0000 </r>
       <r>    -9.1465     0.0000     8.0000 </r>
       <r>    -9.0678     0.0001     8.0000 </r>
       <r>    -8.9891     0.0008     8.0001 </r>
       <r>    -8.9104     0.0069     8.0006 </r>
       <r>    -8.8317     0.0446     8.0041 </r>
       <r>    -8.7530     0.2117     8.0208 </r>
       <r>    -8.6743     0.7422     8.0792 </r>
       <r>    -8.5956     1.9235     8.2306 </r>
       <r>    -8.5169     3.6854     8.5206 </r>
       <r>    -8.4382     5.2214     8.9315 </r>
       <r>    -8.3595     5.4705     9.3620 </r>
       <r>    -8.2808     4.2388     9.6956 </r>
       <r>    -8.2021     2.4316     9.8870 </r>
       <r>    -8.1234     1.0540     9.9699 </r>
       <r>    -8.0447     0.4701    10.0069 </r>
       <r>    -7.9660     0.7147    10.0631 </r>
       <r>    -7.8873     2.0600    10.2253 </r>
       <r>    -7.8086     4.8415    10.6063 </r>
       <r>    -7.7299     8.4603    11.2721 </r>
       <r>    -7.6512    10.9354    12.1326 </r>
       <r>    -7.5725    10.4529    12.9552 </r>
       <r>    -7.4938     7.3889    13.5367 </r>
       <r>    -7.4151     3.8622    13.8407 </r>
       <r>    -7.3364     1.4925    13.9581 </r>
       <r>    -7.2577     0.4263    13.9917 </r>
       <r>    -7.1790     0.0900    13.9988 </r>
       <r>    -7.1003     0.0140    13.9999 </r>
       <r>    -7.0216     0.0016    14.0000 </r>
       <r>    -6.9429     0.0001    14.0000 </r>
       <r>    -6.8643     0.0000    14.0000 </r>
       <r>    -6.7856     0.0000    14.0000 </r>
       <r>    -6.7069     0.0000    14.0000 </r>
       <r>    -6.6282     0.0000    14.0000 </r>
       <r>    -6.5495     0.0000    14.0000 </r>
       <r>    -6.4708     0.0000    14.0000 </r>
       <r>    -6.3921     0.0000    14.0000 </r>
       <r>    -6.3134     0.0000    14.0000 </r>
       <r>    -6.2347     0.0000    14.0000 </r>
       <r>    -6.1560     0.0000    14.0000 </r>
       <r>    -6.0773     0.0000    14.0000 </r>
       <r>    -5.9986     0.0000    14.0000 </r>
       <r>    -5.9199     0.0000    14.0000 </r>
       <r>    -5.8412     0.0000    14.0000 </r>
       <r>    -5.7625     0.0000    14.0000 </r>
       <r>    -5.6838     0.0000    14.0000 </r>
       <r>    -5.6051     0.0000    14.0000 </r>
       <r>    -5.5264     0.0000    14.0000 </r>
       <r>    -5.4477     0.0000    14.0000 </r>
       <r>    -5.3690     0.0000    14.0000 </r>
       <r>    -5.2903     0.0000    14.0000 </r>
       <r>    -5.2116     0.0000    14.0000 </r>
       <r>    -5.1329     0.0000    14.0000 </r>
       <r>    -5.0542     0.0000    14.0000 </r>
       <r>    -4.9755     0.0000    14.0000 </r>
       <r>    -4.8968     0.0000    14.0000 </r>
       <r>    -4.8181     0.0000    14.0000 </r>
       <r>    -4.7394     0.0000    14.0000 </r>
       <r>    -4.6607     0.0000    14.0000 </r>
       <r>    -4.5820     0.0000    14.0000 </r>
       <r>    -4.5034     0.0000    14.0000 </r>
       <r>    -4.4247     0.0000    14.0000 </r>
       <r>    -4.3460     0.0000    14.0000 </r>
       <r>    -4.2673     0.0000    14.0000 </r>
       <r>    -4.1886     0.0000    14.0000 </r>
       <r>    -4.1099     0.0000    14.0000 </r>
       <r>    -4.0312     0.0000    14.0000 </r>
       <r>    -3.9525     0.0000    14.0000 </r>
       <r>    -3.8738     0.0000    14.0000 </r>
       <r>    -3.7951     0.0000    14.0000 </r>
       <r>    -3.7164     0.0000    14.0000 </r>
       <r>    -3.6377     0.0000    14.0000 </r>
       <r>    -3.5590     0.0000    14.0000 </r>
       <r>    -3.4803     0.0000    14.0000 </r>
       <r>    -3.4016     0.0000    14.0000 </r>
       <r>    -3.3229     0.0000    14.0000 </r>
       <r>    -3.2442     0.0000    14.0000 </r>
       <r>    -3.1655     0.0000    14.0000 </r>
       <r>    -3.0868     0.0000    14.0000 </r>
       <r>    -3.0081     0.0000    14.0000 </r>
       <r>    -2.9294     0.0000    14.0000 </r>
       <r>    -2.8507     0.0000    14.0000 </r>
       <r>    -2.7720     0.0000    14.0000 </r>
       <r>    -2.6933     0.0000    14.0000 </r>
       <r>    -2.6146     0.0000    14.0000 </r>
       <r>    -2.5359     0.0000    14.0000 </r>
       <r>    -2.4572     0.0000    14.0000 </r>
       <r>    -2.3785     0.0000    14.0000 </r>
       <r>    -2.2998     0.0000    14.0000 </r>
       <r>    -2.2211     0.0000    14.0000 </r>
       <r>    -2.1425     0.0000    14.0000 </r>
       <r>    -2.0638     0.0000    14.0000 </r>
       <r>    -1.9851     0.0000    14.0000 </r>
       <r>    -1.9064     0.0000    14.0000 </r>
       <r>    -1.8277     0.0000    14.0000 </r>
       <r>    -1.7490     0.0000    14.0000 </r>
       <r>    -1.6703     0.0000    14.0000 </r>
       <r>    -1.5916     0.0000    14.0000 </r>
       <r>    -1.5129     0.0000    14.0000 </r>
       <r>    -1.4342     0.0000    14.0000 </r>
       <r>    -1.3555     0.0000    14.0000 </r>
       <r>    -1.2768     0.0000    14.0000 </r>
       <r>    -1.1981     0.0001    14.0000 </r>
       <r>    -1.1194     0.0012    14.0001 </r>
       <r>    -1.0407     0.0101    14.0009 </r>
       <r>    -0.9620     0.0611    14.0057 </r>
       <r>    -0.8833     0.2739    14.0273 </r>
       <r>    -0.8046     0.9076    14.0987 </r>
       <r>    -0.7259     2.2228    14.2736 </r>
       <r>    -0.6472     4.0250    14.5904 </r>
       <r>    -0.5685     5.3894    15.0145 </r>
       <r>    -0.4898     5.3365    15.4345 </r>
       <r>    -0.4111     3.9077    15.7420 </r>
       <r>    -0.3324     2.1159    15.9085 </r>
       <r>    -0.2537     0.8471    15.9752 </r>
       <r>    -0.1750     0.2507    15.9949 </r>
       <r>    -0.0963     0.0548    15.9992 </r>
       <r>    -0.0176     0.0089    15.9999 </r>
       <r>     0.0611     0.0011    16.0000 </r>
       <r>     0.1398     0.0001    16.0000 </r>
       <r>     0.2184     0.0000    16.0000 </r>
       <r>     0.2971     0.0000    16.0000 </r>
       <r>     0.3758     0.0000    16.0000 </r>
       <r>     0.4545     0.0000    16.0000 </r>
       <r>     0.5332     0.0000    16.0000 </r>
       <r>     0.6119     0.0000    16.0000 </r>
       <r>     0.6906     0.0000    16.0000 </r>
       <r>     0.7693     0.0005    16.0000 </r>
       <r>     0.8480     0.0048    16.0004 </r>
       <r>     0.9267     0.0373    16.0034 </r>
       <r>     1.0054     0.2149    16.0203 </r>
       <r>     1.0841     0.9247    16.0930 </r>
       <r>     1.1628     2.9842    16.3279 </r>
       <r>     1.2415     7.2550    16.8988 </r>
       <r>     1.3202    13.3677    17.9508 </r>
       <r>     1.3989    18.8096    19.4311 </r>
       <r>     1.4776    20.3905    21.0357 </r>
       <r>     1.5563    17.1791    22.3877 </r>
       <r>     1.6350    11.3223    23.2787 </r>
       <r>     1.7137     5.8498    23.7391 </r>
       <r>     1.7924     2.3615    23.9249 </r>
       <r>     1.8711     0.7392    23.9831 </r>
       <r>     1.9498     0.1776    23.9971 </r>
       <r>     2.0285     0.0325    23.9996 </r>
       <r>     2.1072     0.0045    24.0000 </r>
       <r>     2.1859     0.0005    24.0000 </r>
       <r>     2.2646     0.0000    24.0000 </r>
       <r>     2.3433     0.0000    24.0000 </r>
       <r>     2.4220     0.0000    24.0000 </r>
       <r>     2.5007     0.0000    24.0000 </r>
       <r>     2.5793     0.0000    24.0000 </r>
       <r>     2.6580     0.0000    24.0000 </r>
       <r>     2.7367     0.0000    24.0000 </r>
       <r>     2.8154     0.0000    24.0000 </r>
       <r>     2.8941     0.0000    24.0000 </r>
       <r>     2.9728     0.0000    24.0000 </r>
       <r>     3.0515     0.0000    24.0000 </r>
       <r>     3.1302     0.0000    24.0000 </r>
       <r>     3.2089     0.0000    24.0000 </r>
       <r>     3.2876     0.0000    24.0000 </r>
       <r>     3.3663     0.0000    24.0000 </r>
       <r>     3.4450     0.0000    24.0000 </r>
       <r>     3.5237     0.0000    24.0000 </r>
      </set>
     </set>
    </array>
   </total>
  </dos>
 </calculation>
 <structure name="finalpos" >
  <crystal>
   <varray name="basis" >
    <v>       8.00000000       0.00000000       0.00000000 </v>
    <v>       0.00000000       8.00000000       0.00000000 </v>
    <v>       0.00000000       0.00000000       8.00000000 </v>
   </varray>
   <i name="volume">    512.00000000 </i>
   <varray name="rec_basis" >
    <v>       0.12500000       0.00000000       0.00000000 </v>
    <v>       0.00000000       0.12500000       0.00000000 </v>
    <v>       0.00000000       0.00000000       0.12500000 </v>
   </varray>
  </crystal>
  <varray name="positions" >
   <v>       0.00000000       0.12823551       0.14518380 </v>
   <v>       0.88894069       0.93589113       0.14518387 </v>
   <v>       0.11105931       0.93589113       0.14518387 </v>
   <v>       0.00000000       0.87176449       0.85481620 </v>
   <v>       0.88894069       0.06410887       0.85481613 </v>
   <v>       0.11105931       0.06410887       0.85481613 </v>
   <v>       0.00000000       0.00000204       0.09545060 </v>
   <v>       0.00000000      -0.00000204       0.90454940 </v>
  </varray>
 </structure>
</modeling>
