   4   4   0   0
  0.1280000E+03  0.8000000E-09  0.8000000E-09  0.8000000E-09  0.5000000E-15
  1.000000000000000E-004
  CAR 
 unknown system                          
      3.07630956    -20.36974752  301     -5.91119301      1.00000000
    -20.370  0.0000E+00  0.0000E+00
    -20.292  0.0000E+00  0.0000E+00
    -20.213  0.0000E+00  0.0000E+00
    -20.135  0.0000E+00  0.0000E+00
    -20.057  0.0000E+00  0.0000E+00
    -19.979  0.0000E+00  0.0000E+00
    -19.901  0.0000E+00  0.0000E+00
    -19.823  0.0000E+00  0.0000E+00
    -19.745  0.0000E+00  0.0000E+00
    -19.666  0.0000E+00  0.0000E+00
    -19.588  0.0000E+00  0.0000E+00
    -19.510  0.9944E-15  0.7772E-16
    -19.432  0.7430E-13  0.5884E-14
    -19.354  0.4342E-11  0.3452E-12
    -19.276  0.1876E-09  0.1500E-10
    -19.197  0.5996E-08  0.4836E-09
    -19.119  0.1419E-06  0.1158E-07
    -19.041  0.2488E-05  0.2060E-06
    -18.963  0.3231E-04  0.2731E-05
    -18.885  0.3110E-03  0.2703E-04
    -18.807  0.2219E-02  0.2005E-03
    -18.729  0.1174E-01  0.1118E-02
    -18.650  0.4611E-01  0.4722E-02
    -18.572  0.1344E+00  0.1522E-01
    -18.494  0.2906E+00  0.3794E-01
    -18.416  0.4667E+00  0.7441E-01
    -18.338  0.5564E+00  0.1179E+00
    -18.260  0.4926E+00  0.1564E+00
    -18.181  0.3238E+00  0.1817E+00
    -18.103  0.1580E+00  0.1940E+00
    -18.025  0.5723E-01  0.1985E+00
    -17.947  0.1539E-01  0.1997E+00
    -17.869  0.3069E-02  0.2000E+00
    -17.791  0.4540E-03  0.2000E+00
    -17.713  0.4980E-04  0.2000E+00
    -17.634  0.4049E-05  0.2000E+00
    -17.556  0.2439E-06  0.2000E+00
    -17.478  0.1088E-07  0.2000E+00
    -17.400  0.3595E-09  0.2000E+00
    -17.322  0.8789E-11  0.2000E+00
    -17.244  0.1588E-12  0.2000E+00
    -17.165  0.2273E-14  0.2000E+00
    -17.087  0.0000E+00  0.2000E+00
    -17.009  0.0000E+00  0.2000E+00
    -16.931  0.0000E+00  0.2000E+00
    -16.853  0.0000E+00  0.2000E+00
    -16.775  0.0000E+00  0.2000E+00
    -16.697  0.0000E+00  0.2000E+00
    -16.618  0.0000E+00  0.2000E+00
    -16.540  0.0000E+00  0.2000E+00
    -16.462  0.0000E+00  0.2000E+00
    -16.384  0.0000E+00  0.2000E+00
    -16.306  0.0000E+00  0.2000E+00
    -16.228  0.0000E+00  0.2000E+00
    -16.149  0.0000E+00  0.2000E+00
    -16.071  0.0000E+00  0.2000E+00
    -15.993  0.0000E+00  0.2000E+00
    -15.915  0.0000E+00  0.2000E+00
    -15.837  0.0000E+00  0.2000E+00
    -15.759  0.0000E+00  0.2000E+00
    -15.681  0.0000E+00  0.2000E+00
    -15.602  0.0000E+00  0.2000E+00
    -15.524  0.0000E+00  0.2000E+00
    -15.446  0.0000E+00  0.2000E+00
    -15.368  0.0000E+00  0.2000E+00
    -15.290  0.0000E+00  0.2000E+00
    -15.212  0.0000E+00  0.2000E+00
    -15.133  0.0000E+00  0.2000E+00
    -15.055  0.0000E+00  0.2000E+00
    -14.977  0.0000E+00  0.2000E+00
    -14.899  0.2841E-15  0.2000E+00
    -14.821  0.2529E-13  0.2000E+00
    -14.743  0.1592E-11  0.2000E+00
    -14.665  0.7424E-10  0.2000E+00
    -14.586  0.2562E-08  0.2000E+00
    -14.508  0.6543E-07  0.2000E+00
    -14.430  0.1238E-05  0.2000E+00
    -14.352  0.1734E-04  0.2000E+00
    -14.274  0.1801E-03  0.2000E+00
    -14.196  0.1387E-02  0.2001E+00
    -14.117  0.7916E-02  0.2007E+00
    -14.039  0.3353E-01  0.2034E+00
    -13.961  0.1054E+00  0.2116E+00
    -13.883  0.2458E+00  0.2308E+00
    -13.805  0.4257E+00  0.2641E+00
    -13.727  0.5473E+00  0.3069E+00
    -13.649  0.5226E+00  0.3477E+00
    -13.570  0.3704E+00  0.3766E+00
    -13.492  0.1950E+00  0.3919E+00
    -13.414  0.7617E-01  0.3978E+00
    -13.336  0.2209E-01  0.3996E+00
    -13.258  0.4752E-02  0.3999E+00
    -13.180  0.7584E-03  0.4000E+00
    -13.101  0.8976E-04  0.4000E+00
    -13.023  0.7874E-05  0.4000E+00
    -12.945  0.5118E-06  0.4000E+00
    -12.867  0.2464E-07  0.4000E+00
    -12.789  0.8898E-09  0.4000E+00
    -12.711  0.4712E-09  0.4000E+00
    -12.633  0.1331E-07  0.4000E+00
    -12.554  0.2929E-06  0.4000E+00
    -12.476  0.4772E-05  0.4000E+00
    -12.398  0.5762E-04  0.4000E+00
    -12.320  0.5156E-03  0.4000E+00
    -12.242  0.3421E-02  0.4003E+00
    -12.164  0.1684E-01  0.4016E+00
    -12.085  0.6148E-01  0.4064E+00
    -12.007  0.1666E+00  0.4195E+00
    -11.929  0.3352E+00  0.4457E+00
    -11.851  0.5006E+00  0.4848E+00
    -11.773  0.5552E+00  0.5282E+00
    -11.695  0.4571E+00  0.5639E+00
    -11.617  0.2795E+00  0.5857E+00
    -11.538  0.1268E+00  0.5956E+00
    -11.460  0.4273E-01  0.5990E+00
    -11.382  0.1068E-01  0.5998E+00
    -11.304  0.1982E-02  0.6000E+00
    -11.226  0.2726E-03  0.6000E+00
    -11.148  0.2780E-04  0.6000E+00
    -11.069  0.2101E-05  0.6000E+00
    -10.991  0.1177E-06  0.6000E+00
    -10.913  0.4880E-08  0.6000E+00
    -10.835  0.1498E-09  0.6000E+00
    -10.757  0.3404E-11  0.6000E+00
    -10.679  0.5739E-13  0.6000E+00
    -10.601  0.5682E-15  0.6000E+00
    -10.522  0.0000E+00  0.6000E+00
    -10.444  0.0000E+00  0.6000E+00
    -10.366  0.0000E+00  0.6000E+00
    -10.288  0.0000E+00  0.6000E+00
    -10.210  0.0000E+00  0.6000E+00
    -10.132  0.0000E+00  0.6000E+00
    -10.053  0.0000E+00  0.6000E+00
     -9.975  0.0000E+00  0.6000E+00
     -9.897  0.0000E+00  0.6000E+00
     -9.819  0.0000E+00  0.6000E+00
     -9.741  0.0000E+00  0.6000E+00
     -9.663  0.0000E+00  0.6000E+00
     -9.585  0.0000E+00  0.6000E+00
     -9.506  0.0000E+00  0.6000E+00
     -9.428  0.0000E+00  0.6000E+00
     -9.350  0.0000E+00  0.6000E+00
     -9.272  0.0000E+00  0.6000E+00
     -9.194  0.0000E+00  0.6000E+00
     -9.116  0.0000E+00  0.6000E+00
     -9.037  0.0000E+00  0.6000E+00
     -8.959  0.0000E+00  0.6000E+00
     -8.881  0.0000E+00  0.6000E+00
     -8.803  0.0000E+00  0.6000E+00
     -8.725  0.0000E+00  0.6000E+00
     -8.647  0.0000E+00  0.6000E+00
     -8.569  0.0000E+00  0.6000E+00
     -8.490  0.0000E+00  0.6000E+00
     -8.412  0.0000E+00  0.6000E+00
     -8.334  0.0000E+00  0.6000E+00
     -8.256  0.0000E+00  0.6000E+00
     -8.178  0.0000E+00  0.6000E+00
     -8.100  0.0000E+00  0.6000E+00
     -8.021  0.5682E-15  0.6000E+00
     -7.943  0.5824E-13  0.6000E+00
     -7.865  0.3634E-11  0.6000E+00
     -7.787  0.1677E-09  0.6000E+00
     -7.709  0.5730E-08  0.6000E+00
     -7.631  0.1449E-06  0.6000E+00
     -7.553  0.2714E-05  0.6000E+00
     -7.474  0.3766E-04  0.6000E+00
     -7.396  0.3872E-03  0.6000E+00
     -7.318  0.2952E-02  0.6003E+00
     -7.240  0.1669E-01  0.6016E+00
     -7.162  0.6998E-01  0.6070E+00
     -7.084  0.2178E+00  0.6241E+00
     -7.005  0.5030E+00  0.6634E+00
     -6.927  0.8626E+00  0.7308E+00
     -6.849  0.1098E+01  0.8166E+00
     -6.771  0.1038E+01  0.8978E+00
     -6.693  0.7288E+00  0.9547E+00
     -6.615  0.3798E+00  0.9844E+00
     -6.537  0.1469E+00  0.9959E+00
     -6.458  0.4219E-01  0.9992E+00
     -6.380  0.8987E-02  0.9999E+00
     -6.302  0.1420E-02  0.1000E+01
     -6.224  0.1664E-03  0.1000E+01
     -6.146  0.1446E-04  0.1000E+01
     -6.068  0.9304E-06  0.1000E+01
     -5.989  0.4435E-07  0.1000E+01
     -5.911  0.1566E-08  0.1000E+01
     -5.833  0.4091E-10  0.1000E+01
     -5.755  0.7910E-12  0.1000E+01
     -5.677  0.1136E-13  0.1000E+01
     -5.599  0.0000E+00  0.1000E+01
     -5.521  0.0000E+00  0.1000E+01
     -5.442  0.0000E+00  0.1000E+01
     -5.364  0.0000E+00  0.1000E+01
     -5.286  0.0000E+00  0.1000E+01
     -5.208  0.0000E+00  0.1000E+01
     -5.130  0.0000E+00  0.1000E+01
     -5.052  0.0000E+00  0.1000E+01
     -4.974  0.0000E+00  0.1000E+01
     -4.895  0.0000E+00  0.1000E+01
     -4.817  0.0000E+00  0.1000E+01
     -4.739  0.0000E+00  0.1000E+01
     -4.661  0.0000E+00  0.1000E+01
     -4.583  0.0000E+00  0.1000E+01
     -4.505  0.0000E+00  0.1000E+01
     -4.426  0.0000E+00  0.1000E+01
     -4.348  0.0000E+00  0.1000E+01
     -4.270  0.0000E+00  0.1000E+01
     -4.192  0.0000E+00  0.1000E+01
     -4.114  0.0000E+00  0.1000E+01
     -4.036  0.0000E+00  0.1000E+01
     -3.958  0.0000E+00  0.1000E+01
     -3.879  0.0000E+00  0.1000E+01
     -3.801  0.0000E+00  0.1000E+01
     -3.723  0.0000E+00  0.1000E+01
     -3.645  0.0000E+00  0.1000E+01
     -3.567  0.0000E+00  0.1000E+01
     -3.489  0.0000E+00  0.1000E+01
     -3.410  0.0000E+00  0.1000E+01
     -3.332  0.0000E+00  0.1000E+01
     -3.254  0.0000E+00  0.1000E+01
     -3.176  0.0000E+00  0.1000E+01
     -3.098  0.0000E+00  0.1000E+01
     -3.020  0.0000E+00  0.1000E+01
     -2.942  0.0000E+00  0.1000E+01
     -2.863  0.0000E+00  0.1000E+01
     -2.785  0.0000E+00  0.1000E+01
     -2.707  0.0000E+00  0.1000E+01
     -2.629  0.0000E+00  0.1000E+01
     -2.551  0.0000E+00  0.1000E+01
     -2.473  0.0000E+00  0.1000E+01
     -2.394  0.0000E+00  0.1000E+01
     -2.316  0.0000E+00  0.1000E+01
     -2.238  0.0000E+00  0.1000E+01
     -2.160  0.0000E+00  0.1000E+01
     -2.082  0.0000E+00  0.1000E+01
     -2.004  0.0000E+00  0.1000E+01
     -1.926  0.0000E+00  0.1000E+01
     -1.847  0.0000E+00  0.1000E+01
     -1.769  0.0000E+00  0.1000E+01
     -1.691  0.0000E+00  0.1000E+01
     -1.613  0.0000E+00  0.1000E+01
     -1.535  0.2841E-15  0.1000E+01
     -1.457  0.2585E-13  0.1000E+01
     -1.378  0.1624E-11  0.1000E+01
     -1.300  0.7562E-10  0.1000E+01
     -1.222  0.2605E-08  0.1000E+01
     -1.144  0.6645E-07  0.1000E+01
     -1.066  0.1255E-05  0.1000E+01
     -0.988  0.1756E-04  0.1000E+01
     -0.910  0.1821E-03  0.1000E+01
     -0.831  0.1400E-02  0.1000E+01
     -0.753  0.7980E-02  0.1001E+01
     -0.675  0.3376E-01  0.1003E+01
     -0.597  0.1061E+00  0.1012E+01
     -0.519  0.2480E+00  0.1031E+01
     -0.441  0.4352E+00  0.1065E+01
     -0.362  0.5887E+00  0.1111E+01
     -0.284  0.6659E+00  0.1163E+01
     -0.206  0.7435E+00  0.1221E+01
     -0.128  0.9160E+00  0.1293E+01
     -0.050  0.1110E+01  0.1380E+01
      0.028  0.1122E+01  0.1467E+01
      0.106  0.8737E+00  0.1536E+01
      0.185  0.5104E+00  0.1575E+01
      0.263  0.2220E+00  0.1593E+01
      0.341  0.7172E-01  0.1598E+01
      0.419  0.1720E-01  0.1600E+01
      0.497  0.3109E-02  0.1600E+01
      0.575  0.8577E-03  0.1600E+01
      0.654  0.3108E-02  0.1600E+01
      0.732  0.1539E-01  0.1601E+01
      0.810  0.5723E-01  0.1606E+01
      0.888  0.1580E+00  0.1618E+01
      0.966  0.3238E+00  0.1644E+01
      1.044  0.4926E+00  0.1682E+01
      1.122  0.5564E+00  0.1726E+01
      1.201  0.4667E+00  0.1762E+01
      1.279  0.2906E+00  0.1785E+01
      1.357  0.1344E+00  0.1795E+01
      1.435  0.4611E-01  0.1799E+01
      1.513  0.1174E-01  0.1800E+01
      1.591  0.2219E-02  0.1800E+01
      1.670  0.3110E-03  0.1800E+01
      1.748  0.3231E-04  0.1800E+01
      1.826  0.2488E-05  0.1800E+01
      1.904  0.1419E-06  0.1800E+01
      1.982  0.5996E-08  0.1800E+01
      2.060  0.1876E-09  0.1800E+01
      2.138  0.4342E-11  0.1800E+01
      2.217  0.7415E-13  0.1800E+01
      2.295  0.1136E-14  0.1800E+01
      2.373  0.0000E+00  0.1800E+01
      2.451  0.0000E+00  0.1800E+01
      2.529  0.0000E+00  0.1800E+01
      2.607  0.0000E+00  0.1800E+01
      2.686  0.0000E+00  0.1800E+01
      2.764  0.0000E+00  0.1800E+01
      2.842  0.0000E+00  0.1800E+01
      2.920  0.0000E+00  0.1800E+01
      2.998  0.0000E+00  0.1800E+01
      3.076  0.0000E+00  0.1800E+01
