    4    4   10    1
  0.1280000E+03  0.8000000E-09  0.8000000E-09  0.8000000E-09  0.5000000E-15
  1.000000000000000E-004
  CAR 
 unknown system                          
   10    1    9
 
  0.0000000E+00  0.0000000E+00  0.0000000E+00  0.1000000E+01
   1      -18.369748
   2      -13.738862
   3      -11.823868
   4       -6.863938
   5       -6.863938
   6       -0.374999
   7       -0.033591
   8       -0.033591
   9        1.076310
