       N       E                     dE             d eps       ncg     rms          rms(c)
DAV:   1     0.950183741501E+01    0.95018E+01   -0.23140E+03    26   0.397E+02
DAV:   2    -0.239933319828E+02   -0.33495E+02   -0.33492E+02    27   0.112E+02
DAV:   3    -0.261436639181E+02   -0.21503E+01   -0.21503E+01    36   0.266E+01
DAV:   4    -0.261466567314E+02   -0.29928E-02   -0.29922E-02    19   0.840E-01
DAV:   5    -0.261467010426E+02   -0.44311E-04   -0.44309E-04    19   0.120E-01    0.833E+00
DAV:   6    -0.234908624882E+02    0.26558E+01   -0.45309E+00    18   0.144E+01    0.386E+00
DAV:   7    -0.229053559014E+02    0.58551E+00   -0.24622E+00    27   0.992E+00    0.135E+00
DAV:   8    -0.228653348268E+02    0.40021E-01   -0.18131E-01    20   0.330E+00    0.415E-01
DAV:   9    -0.228532890274E+02    0.12046E-01   -0.30138E-02    28   0.119E+00    0.163E-01
DAV:  10    -0.228548830961E+02   -0.15941E-02   -0.10757E-02    18   0.592E-01    0.490E-02
DAV:  11    -0.228598241686E+02   -0.49411E-02   -0.30689E-03    18   0.315E-01    0.572E-02
DAV:  12    -0.228646115351E+02   -0.47874E-02   -0.15768E-03    19   0.265E-01    0.137E-02
DAV:  13    -0.228659259090E+02   -0.13144E-02   -0.20593E-04    19   0.924E-02    0.118E-02
DAV:  14    -0.228661776575E+02   -0.25175E-03   -0.62238E-05    18   0.463E-02    0.270E-03
DAV:  15    -0.228662897148E+02   -0.11206E-03   -0.14042E-05    19   0.211E-02    0.154E-03
DAV:  16    -0.228662959784E+02   -0.62636E-05   -0.49805E-07    19   0.348E-03
   1 F= -.22866296E+02 E0= -.22866296E+02  d E =-.228663E+02
       N       E                     dE             d eps       ncg     rms          rms(c)
DAV:   1    -0.223680306656E+02    0.49826E+00   -0.17514E+01    19   0.385E+01    0.172E+00
DAV:   2    -0.222894267044E+02    0.78604E-01   -0.25181E-01    26   0.475E+00    0.884E-01
DAV:   3    -0.222725817202E+02    0.16845E-01   -0.18674E-01    27   0.316E+00    0.282E-01
DAV:   4    -0.222699083580E+02    0.26734E-02   -0.12173E-02    18   0.833E-01    0.121E-01
DAV:   5    -0.222698938882E+02    0.14470E-04   -0.17002E-03    18   0.262E-01    0.220E-02
DAV:   6    -0.222699649474E+02   -0.71059E-04   -0.21760E-04    19   0.105E-01
   2 F= -.22269965E+02 E0= -.22269965E+02  d E =0.596331E+00
       N       E                     dE             d eps       ncg     rms          rms(c)
DAV:   1    -0.229524658691E+02   -0.68257E+00   -0.14898E+01    18   0.362E+01    0.153E+00
DAV:   2    -0.228864955660E+02    0.65970E-01   -0.20460E-01    26   0.431E+00    0.819E-01
DAV:   3    -0.228717126120E+02    0.14783E-01   -0.13782E-01    18   0.278E+00    0.210E-01
DAV:   4    -0.228715591760E+02    0.15344E-03   -0.28468E-02    18   0.127E+00    0.178E-01
DAV:   5    -0.228706814654E+02    0.87771E-03   -0.51024E-03    18   0.597E-01    0.194E-02
DAV:   6    -0.228707351729E+02   -0.53708E-04   -0.31057E-04    19   0.164E-01
   3 F= -.22870735E+02 E0= -.22870735E+02  d E =-.443919E-02
