<?xml version="1.0" encoding="ISO-8859-1"?>
<modeling>
 <generator>
  <i name="program" type="string">vasp </i>
  <i name="version" type="string">5.2.12  </i>
  <i name="subversion" type="string">11Nov11 complex                                                      parallel </i>
  <i name="platform" type="string">LinuxIFC </i>
  <i name="date" type="string">2012 11 03 </i>
  <i name="time" type="string">02:06:34 </i>
 </generator>
 <incar>
  <i type="string" name="PREC">normal</i>
  <i type="int" name="IBRION">     2</i>
  <i type="int" name="NSW">    10</i>
  <i name="ENCUT">    300.00000000</i>
  <i type="int" name="ISMEAR">     0</i>
 </incar>
 <kpoints>
  <generation param="Monkhorst-Pack">
   <v type="int" name="divisions">       1        1        1 </v>
   <v name="usershift">      0.00000000       0.00000000       0.00000000 </v>
   <v name="genvec1">      1.00000000       0.00000000       0.00000000 </v>
   <v name="genvec2">      0.00000000       1.00000000       0.00000000 </v>
   <v name="genvec3">      0.00000000       0.00000000       1.00000000 </v>
   <v name="shift">      0.00000000       0.00000000       0.00000000 </v>
  </generation>
  <varray name="kpointlist" >
   <v>       0.00000000       0.00000000       0.00000000 </v>
  </varray>
  <varray name="weights" >
   <v>       1.00000000 </v>
  </varray>
 </kpoints>
 <parameters>
  <separator name="general" >
   <i type="string" name="SYSTEM">unknown system</i>
   <i type="logical" name="LCOMPAT"> F  </i>
  </separator>
  <separator name="electronic" >
   <i type="string" name="PREC">normal</i>
   <i name="ENMAX">    300.00000000</i>
   <i name="ENAUG">    644.87300000</i>
   <i name="EDIFF">      0.00010000</i>
   <i type="int" name="IALGO">    38</i>
   <i type="int" name="IWAVPR">    11</i>
   <i type="int" name="NBANDS">     9</i>
   <i name="NELECT">     10.00000000</i>
   <i type="int" name="TURBO">     0</i>
   <i type="int" name="IRESTART">     0</i>
   <i type="int" name="NREBOOT">     0</i>
   <i type="int" name="NMIN">     0</i>
   <i name="EREF">      0.00000000</i>
   <separator name="electronic smearing" >
    <i type="int" name="ISMEAR">     0</i>
    <i name="SIGMA">      0.20000000</i>
    <i name="KSPACING">      0.50000000</i>
    <i type="logical" name="KGAMMA"> T  </i>
   </separator>
   <separator name="electronic projectors" >
    <i type="logical" name="LREAL"> F  </i>
    <v name="ROPT">      0.00000000      0.00000000</v>
    <i type="int" name="LMAXPAW">  -100</i>
    <i type="int" name="LMAXMIX">     2</i>
    <i type="logical" name="NLSPLINE"> F  </i>
   </separator>
   <separator name="electronic startup" >
    <i type="int" name="ISTART">     0</i>
    <i type="int" name="ICHARG">     2</i>
    <i type="int" name="INIWAV">     1</i>
   </separator>
   <separator name="electronic spin" >
    <i type="int" name="ISPIN">     1</i>
    <i type="logical" name="LNONCOLLINEAR"> F  </i>
    <v name="MAGMOM">      1.00000000      1.00000000      1.00000000      1.00000000</v>
    <i name="NUPDOWN">     -1.00000000</i>
    <i type="logical" name="LSORBIT"> F  </i>
    <v name="SAXIS">      0.00000000      0.00000000      1.00000000</v>
    <i type="logical" name="LSPIRAL"> F  </i>
    <v name="QSPIRAL">      0.00000000      0.00000000      0.00000000</v>
    <i type="logical" name="LZEROZ"> F  </i>
   </separator>
   <separator name="electronic exchange-correlation" >
    <i type="logical" name="LASPH"> F  </i>
    <i type="logical" name="LMETAGGA"> F  </i>
   </separator>
   <separator name="electronic convergence" >
    <i type="int" name="NELM">    60</i>
    <i type="int" name="NELMDL">    -5</i>
    <i type="int" name="NELMIN">     2</i>
    <i name="ENINI">    300.00000000</i>
    <separator name="electronic convergence detail" >
     <i type="logical" name="LDIAG"> T  </i>
     <i type="logical" name="LSUBROT"> T  </i>
     <i name="WEIMIN">      0.00100000</i>
     <i name="EBREAK">      0.00000278</i>
     <i name="DEPER">      0.30000000</i>
     <i type="int" name="NRMM">     4</i>
     <i name="TIME">      0.40000000</i>
    </separator>
   </separator>
   <separator name="electronic mixer" >
    <i name="AMIX">      0.40000000</i>
    <i name="BMIX">      1.00000000</i>
    <i name="AMIN">      0.10000000</i>
    <i name="AMIX_MAG">      1.60000000</i>
    <i name="BMIX_MAG">      1.00000000</i>
    <separator name="electronic mixer details" >
     <i type="int" name="IMIX">     4</i>
     <i type="int" name="MAXMIX">   -45</i>
     <i name="WC">    100.00000000</i>
     <i type="int" name="INIMIX">     1</i>
     <i type="int" name="MIXPRE">     1</i>
     <i type="int" name="MREMOVE">     5</i>
    </separator>
   </separator>
   <separator name="electronic dipolcorrection" >
    <i type="logical" name="LDIPOL"> F  </i>
    <i type="logical" name="LMONO"> F  </i>
    <i type="int" name="IDIPOL">     0</i>
    <i name="EPSILON">      1.00000000</i>
    <v name="DIPOL">   -100.00000000   -100.00000000   -100.00000000</v>
    <i name="EFIELD">      0.00000000</i>
   </separator>
  </separator>
  <separator name="grids" >
   <i type="int" name="NGX">    36</i>
   <i type="int" name="NGY">    36</i>
   <i type="int" name="NGZ">    36</i>
   <i type="int" name="NGXF">    72</i>
   <i type="int" name="NGYF">    72</i>
   <i type="int" name="NGZF">    72</i>
   <i type="logical" name="ADDGRID"> F  </i>
  </separator>
  <separator name="ionic" >
   <i type="int" name="NSW">    10</i>
   <i type="int" name="IBRION">     2</i>
   <i type="int" name="ISIF">     2</i>
   <i name="PSTRESS">      0.00000000</i>
   <i name="EDIFFG">      0.00100000</i>
   <i type="int" name="NFREE">     1</i>
   <i name="POTIM">      0.50000000</i>
   <i name="SMASS">     -3.00000000</i>
   <i name="SCALEE">      1.00000000</i>
  </separator>
  <separator name="ionic md" >
   <i name="TEBEG">      0.00010000</i>
   <i name="TEEND">      0.00010000</i>
   <i type="int" name="NBLOCK">     1</i>
   <i type="int" name="KBLOCK">    10</i>
   <i type="int" name="NPACO">   256</i>
   <i name="APACO">     16.00000000</i>
  </separator>
  <separator name="symmetry" >
   <i type="int" name="ISYM">     2</i>
   <i name="SYMPREC">      0.00001000</i>
  </separator>
  <separator name="dos" >
   <i type="logical" name="LORBIT"> F  </i>
   <v name="RWIGS">     -1.00000000     -1.00000000</v>
   <i type="int" name="NEDOS">   301</i>
   <i name="EMIN">     10.00000000</i>
   <i name="EMAX">    -10.00000000</i>
   <i name="EFERMI">      0.00000000</i>
  </separator>
  <separator name="writing" >
   <i type="int" name="NWRITE">     2</i>
   <i type="logical" name="LWAVE"> T  </i>
   <i type="logical" name="LCHARG"> T  </i>
   <i type="logical" name="LPARD"> F  </i>
   <i type="logical" name="LVTOT"> F  </i>
   <i type="logical" name="LVHAR"> F  </i>
   <i type="logical" name="LELF"> F  </i>
   <i type="logical" name="LOPTICS"> F  </i>
   <v name="STM">      0.00000000      0.00000000      0.00000000      0.00000000      0.00000000      0.00000000      0.00000000</v>
  </separator>
  <separator name="performance" >
   <i type="int" name="NPAR">     1</i>
   <i type="int" name="NSIM">     4</i>
   <i type="int" name="NBLK">    -1</i>
   <i type="logical" name="LPLANE"> T  </i>
   <i type="logical" name="LSCALAPACK"> F  </i>
   <i type="logical" name="LSCAAWARE"> F  </i>
   <i type="logical" name="LSCALU"> F  </i>
   <i type="logical" name="LASYNC"> F  </i>
   <i type="logical" name="LORBITALREAL"> F  </i>
  </separator>
  <separator name="miscellaneous" >
   <i type="int" name="IDIOT">     3</i>
   <i type="logical" name="LMUSIC"> F  </i>
   <v name="POMASS">      1.00000000     12.01100000</v>
   <v name="DARWINR">      0.00000000      0.00000000</v>
   <v name="DARWINV">      1.00000000      1.00000000</v>
   <i type="logical" name="LCORR"> T  </i>
  </separator>
  <i type="logical" name="GGA_COMPAT"> T  </i>
  <i type="logical" name="LBERRY"> F  </i>
  <i type="int" name="ICORELEVEL">     0</i>
  <i type="logical" name="LDAU"> F  </i>
  <i type="int" name="I_CONSTRAINED_M">     0</i>
  <separator name="electronic exchange-correlation" >
   <i type="string" name="GGA">--</i>
   <i type="int" name="VOSKOWN">     0</i>
   <i type="logical" name="LHFCALC"> F  </i>
   <i type="string" name="PRECFOCK"></i>
   <i type="logical" name="LHFONE"> F  </i>
   <i type="logical" name="LRHFCALC"> F  </i>
   <i type="logical" name="LTHOMAS"> F  </i>
   <i type="logical" name="LMODELHF"> F  </i>
   <i name="ENCUT4O">     -1.00000000</i>
   <i type="int" name="EXXOEP">     0</i>
   <i type="int" name="FOURORBIT">     0</i>
   <i name="AEXX">      0.00000000</i>
   <i name="HFALPHA">      0.00000000</i>
   <i name="ALDAX">      1.00000000</i>
   <i name="AGGAX">      1.00000000</i>
   <i name="ALDAC">      1.00000000</i>
   <i name="AGGAC">      1.00000000</i>
   <i type="int" name="NKREDX">     1</i>
   <i type="int" name="NKREDY">     1</i>
   <i type="int" name="NKREDZ">     1</i>
   <i type="logical" name="SHIFTRED"> F  </i>
   <i type="logical" name="ODDONLY"> F  </i>
   <i type="logical" name="EVENONLY"> F  </i>
   <i type="int" name="LMAXFOCK">     0</i>
   <i type="int" name="NMAXFOCKAE">     0</i>
   <i type="logical" name="LFOCKAEDFT"> F  </i>
   <i name="HFSCREEN">      0.00000000</i>
   <i name="HFSCREENC">      0.00000000</i>
  </separator>
  <separator name="vdW DFT" >
   <i type="logical" name="LUSE_VDW"> F  </i>
   <i name="Zab_VDW">     -0.84910000</i>
   <i name="PARAM1">      0.12340000</i>
   <i name="PARAM2">      1.00000000</i>
   <i name="PARAM3">      0.00000000</i>
  </separator>
  <separator name="model GW" >
   <i type="int" name="MODEL_GW">     0</i>
   <i name="MODEL_EPS0">     76.80000000</i>
   <i name="MODEL_ALPHA">      1.00000000</i>
  </separator>
  <separator name="linear response parameters" >
   <i type="logical" name="LEPSILON"> F  </i>
   <i type="logical" name="LRPA"> F  </i>
   <i type="logical" name="LNABLA"> F  </i>
   <i type="logical" name="LVEL"> F  </i>
   <i type="int" name="KINTER">     0</i>
   <i name="CSHIFT">      0.10000000</i>
   <i name="OMEGAMAX">     -1.00000000</i>
  </separator>
  <separator name="orbital magnetization" >
   <i type="logical" name="NUCIND"> F  </i>
   <v name="MAGPOS">      0.00000000      0.00000000      0.00000000</v>
   <i type="logical" name="LNICSALL"> T  </i>
   <i type="logical" name="ORBITALMAG"> F  </i>
   <i type="logical" name="LMAGBLOCH"> F  </i>
   <i type="logical" name="LCHIMAG"> F  </i>
   <i type="logical" name="LGAUGE"> T  </i>
   <i type="int" name="MAGATOM">     0</i>
   <v name="MAGDIPOL">      0.00000000      0.00000000      0.00000000</v>
   <v name="AVECCONST">      0.00000000      0.00000000      0.00000000</v>
  </separator>
  <separator name="response functions" >
   <i type="logical" name="LADDER"> F  </i>
   <i type="logical" name="LHARTREE"> T  </i>
   <i type="int" name="IBSE">     0</i>
   <i type="logical" name="LTCTE"> F  </i>
   <i type="logical" name="LTETE"> F  </i>
   <i type="logical" name="LFXCEPS"> F  </i>
   <i type="logical" name="L2ORDER"> F  </i>
   <i type="logical" name="LUSEW"> F  </i>
   <i name="ENCUTGW">     -2.00000000</i>
   <i name="ENCUTGWSOFT">     -2.00000000</i>
   <i name="ENCUTLF">     -1.00000000</i>
   <i type="int" name="LMAXMP2">    -1</i>
   <i name="SCISSOR">      0.00000000</i>
   <i type="int" name="NOMEGA">     0</i>
   <i type="int" name="NOMEGAR">     0</i>
   <i type="int" name="NBANDSGW">    -1</i>
   <i type="int" name="NBANDSO">    -1</i>
   <i type="int" name="NBANDSV">    -1</i>
   <i name="OPTEMAX">      0.00000000</i>
   <i type="int" name="NELM">     1</i>
   <i type="int" name="DIM">     3</i>
   <i type="int" name="ANTIRES">     0</i>
   <i name="OMEGAMAX">    -30.00000000</i>
   <i name="OMEGATL">   -200.00000000</i>
   <i type="int" name="OMEGAGRID">     0</i>
   <i name="CSHIFT">     -0.10000000</i>
   <i type="logical" name="SELFENERGY"> F  </i>
   <i type="logical" name="LSPECTRAL"> F  </i>
   <i type="logical" name="ODDONLYGW"> F  </i>
   <i type="logical" name="EVENONLYGW"> F  </i>
   <i type="int" name="NKREDLFX">     1</i>
   <i type="int" name="NKREDLFY">     1</i>
   <i type="int" name="NKREDLFZ">     1</i>
   <i type="int" name="MAXMEM">  1800</i>
   <i type="int" name="TELESCOPE">     0</i>
  </separator>
 </parameters>
 <atominfo>
  <atoms>       4 </atoms>
  <types>       2 </types>
  <array name="atoms" >
   <dimension dim="1">ion</dimension>
   <field type="string">element</field>
   <field type="int">atomtype</field>
   <set>
    <rc><c>H </c><c>   1</c></rc>
    <rc><c>H </c><c>   1</c></rc>
    <rc><c>C </c><c>   2</c></rc>
    <rc><c>C </c><c>   2</c></rc>
   </set>
  </array>
  <array name="atomtypes" >
   <dimension dim="1">type</dimension>
   <field type="int">atomspertype</field>
   <field type="string">element</field>
   <field>mass</field>
   <field>valence</field>
   <field type="string">pseudopotential</field>
   <set>
    <rc><c>   2</c><c>H </c><c>      1.00000000</c><c>      1.00000000</c><c> PAW_PBE H 15Jun2001                    </c></rc>
    <rc><c>   2</c><c>C </c><c>     12.01100000</c><c>      4.00000000</c><c> PAW_PBE C 08Apr2002                    </c></rc>
   </set>
  </array>
 </atominfo>
 <structure name="initialpos" >
  <crystal>
   <varray name="basis" >
    <v>       8.00000000       0.00000000       0.00000000 </v>
    <v>       0.00000000       8.00000000       0.00000000 </v>
    <v>       0.00000000       0.00000000       8.00000000 </v>
   </varray>
   <i name="volume">    512.00000000 </i>
   <varray name="rec_basis" >
    <v>       0.12500000       0.00000000       0.00000000 </v>
    <v>       0.00000000       0.12500000       0.00000000 </v>
    <v>       0.00000000       0.00000000       0.12500000 </v>
   </varray>
  </crystal>
  <varray name="positions" >
   <v>       0.00000000       0.00000000       0.79075125 </v>
   <v>       0.00000000       0.00000000       0.20924875 </v>
   <v>       0.00000000       0.00000000       0.07601000 </v>
   <v>       0.00000000       0.00000000       0.92399000 </v>
  </varray>
 </structure>
 <calculation>
  <scstep>
   <time name="dav">    0.27    0.27</time>
   <time name="total">    0.83    0.83</time>
   <energy>
    <i name="alphaZ">      0.89086884 </i>
    <i name="ewald">    102.54077057 </i>
    <i name="hartreedc">   -317.70358761 </i>
    <i name="XCdc">     30.23698610 </i>
    <i name="pawpsdc">     77.22553761 </i>
    <i name="pawaedc">    -79.54451240 </i>
    <i name="eentropy">      0.00000000 </i>
    <i name="bandstr">   -122.83558378 </i>
    <i name="atom">    318.69135808 </i>
    <i name="e_fr_energy">      9.50183742 </i>
    <i name="e_wo_entrp">      9.50183742 </i>
    <i name="e_0_energy">      9.50183742 </i>
   </energy>
  </scstep>
  <scstep>
   <time name="dav">    0.27    0.27</time>
   <time name="total">    0.27    0.31</time>
   <energy>
    <i name="e_fr_energy">    -23.99333198 </i>
    <i name="e_wo_entrp">    -23.99333198 </i>
    <i name="e_0_energy">    -23.99333198 </i>
   </energy>
  </scstep>
  <scstep>
   <time name="dav">    0.42    0.42</time>
   <time name="total">    0.42    0.49</time>
   <energy>
    <i name="e_fr_energy">    -26.14366392 </i>
    <i name="e_wo_entrp">    -26.14366392 </i>
    <i name="e_0_energy">    -26.14366392 </i>
   </energy>
  </scstep>
  <scstep>
   <time name="dav">    0.25    0.25</time>
   <time name="total">    0.25    0.33</time>
   <energy>
    <i name="e_fr_energy">    -26.14665673 </i>
    <i name="e_wo_entrp">    -26.14665673 </i>
    <i name="e_0_energy">    -26.14665673 </i>
   </energy>
  </scstep>
  <scstep>
   <time name="dav">    0.24    0.24</time>
   <time name="total">    0.35    0.42</time>
   <energy>
    <i name="e_fr_energy">    -26.14670104 </i>
    <i name="e_wo_entrp">    -26.14670104 </i>
    <i name="e_0_energy">    -26.14670104 </i>
   </energy>
  </scstep>
  <scstep>
   <time name="dav">    0.24    0.24</time>
   <time name="total">    1.00    1.05</time>
   <energy>
    <i name="e_fr_energy">    -23.49086249 </i>
    <i name="e_wo_entrp">    -23.49086249 </i>
    <i name="e_0_energy">    -23.49086249 </i>
   </energy>
  </scstep>
  <scstep>
   <time name="dav">    0.33    0.33</time>
   <time name="total">    1.08    1.11</time>
   <energy>
    <i name="e_fr_energy">    -22.90535590 </i>
    <i name="e_wo_entrp">    -22.90535590 </i>
    <i name="e_0_energy">    -22.90535590 </i>
   </energy>
  </scstep>
  <scstep>
   <time name="dav">    0.25    0.25</time>
   <time name="total">    1.00    1.05</time>
   <energy>
    <i name="e_fr_energy">    -22.86533483 </i>
    <i name="e_wo_entrp">    -22.86533483 </i>
    <i name="e_0_energy">    -22.86533483 </i>
   </energy>
  </scstep>
  <scstep>
   <time name="dav">    0.33    0.33</time>
   <time name="total">    1.08    1.12</time>
   <energy>
    <i name="e_fr_energy">    -22.85328903 </i>
    <i name="e_wo_entrp">    -22.85328903 </i>
    <i name="e_0_energy">    -22.85328903 </i>
   </energy>
  </scstep>
  <scstep>
   <time name="dav">    0.24    0.24</time>
   <time name="total">    0.98    1.02</time>
   <energy>
    <i name="e_fr_energy">    -22.85488310 </i>
    <i name="e_wo_entrp">    -22.85488310 </i>
    <i name="e_0_energy">    -22.85488310 </i>
   </energy>
  </scstep>
  <scstep>
   <time name="dav">    0.24    0.24</time>
   <time name="total">    0.97    1.03</time>
   <energy>
    <i name="e_fr_energy">    -22.85982417 </i>
    <i name="e_wo_entrp">    -22.85982417 </i>
    <i name="e_0_energy">    -22.85982417 </i>
   </energy>
  </scstep>
  <scstep>
   <time name="dav">    0.24    0.24</time>
   <time name="total">    0.98    1.03</time>
   <energy>
    <i name="e_fr_energy">    -22.86461154 </i>
    <i name="e_wo_entrp">    -22.86461154 </i>
    <i name="e_0_energy">    -22.86461154 </i>
   </energy>
  </scstep>
  <scstep>
   <time name="dav">    0.24    0.25</time>
   <time name="total">    0.98    1.06</time>
   <energy>
    <i name="e_fr_energy">    -22.86592591 </i>
    <i name="e_wo_entrp">    -22.86592591 </i>
    <i name="e_0_energy">    -22.86592591 </i>
   </energy>
  </scstep>
  <scstep>
   <time name="dav">    0.24    0.24</time>
   <time name="total">    0.98    1.09</time>
   <energy>
    <i name="e_fr_energy">    -22.86617766 </i>
    <i name="e_wo_entrp">    -22.86617766 </i>
    <i name="e_0_energy">    -22.86617766 </i>
   </energy>
  </scstep>
  <scstep>
   <time name="dav">    0.24    0.24</time>
   <time name="total">    0.99    1.06</time>
   <energy>
    <i name="e_fr_energy">    -22.86628971 </i>
    <i name="e_wo_entrp">    -22.86628971 </i>
    <i name="e_0_energy">    -22.86628971 </i>
   </energy>
  </scstep>
  <scstep>
   <time name="dav">    0.25    0.25</time>
   <time name="total">    0.88    0.94</time>
   <energy>
    <i name="alphaZ">      0.89086884 </i>
    <i name="ewald">    102.54077057 </i>
    <i name="hartreedc">   -359.80089182 </i>
    <i name="XCdc">     32.71674831 </i>
    <i name="pawpsdc">    148.64251132 </i>
    <i name="pawaedc">   -151.15699263 </i>
    <i name="eentropy">      0.00000000 </i>
    <i name="bandstr">   -115.39066866 </i>
    <i name="atom">    318.69135808 </i>
    <i name="e_fr_energy">    -22.86629598 </i>
    <i name="e_wo_entrp">    -22.86629598 </i>
    <i name="e_0_energy">    -22.86629598 </i>
   </energy>
  </scstep>
  <parameters_embedded>
   <separator name="dft+d2" >
    <i type="logical" name="LVDW"> F  </i>
   </separator>
  </parameters_embedded>
  <structure>
   <crystal>
    <varray name="basis" >
     <v>       8.00000000       0.00000000       0.00000000 </v>
     <v>       0.00000000       8.00000000       0.00000000 </v>
     <v>       0.00000000       0.00000000       8.00000000 </v>
    </varray>
    <i name="volume">    512.00000000 </i>
    <varray name="rec_basis" >
     <v>       0.12500000       0.00000000       0.00000000 </v>
     <v>       0.00000000       0.12500000       0.00000000 </v>
     <v>       0.00000000       0.00000000       0.12500000 </v>
    </varray>
   </crystal>
   <varray name="positions" >
    <v>       0.00000000       0.00000000       0.79075125 </v>
    <v>       0.00000000       0.00000000       0.20924875 </v>
    <v>       0.00000000       0.00000000       0.07601000 </v>
    <v>       0.00000000       0.00000000       0.92399000 </v>
   </varray>
  </structure>
  <varray name="forces" >
   <v>       0.00000000       0.00000000      -0.31336561 </v>
   <v>       0.00000000       0.00000000       0.31336561 </v>
   <v>       0.00000000       0.00000000      -1.00729006 </v>
   <v>       0.00000000       0.00000000       1.00729006 </v>
  </varray>
  <varray name="stress" >
   <v>      -7.84166507       0.00000000       0.00000000 </v>
   <v>       0.00000000      -7.84166507       0.00000000 </v>
   <v>       0.00000000       0.00000000     -10.16243645 </v>
  </varray>
  <energy>
   <i name="e_fr_energy">    -22.86629598 </i>
   <i name="e_wo_entrp">    -22.86629598 </i>
   <i name="e_0_energy">      0.00000000 </i>
  </energy>
  <time name="totalsc">   15.06   16.38</time>
 </calculation>
 <calculation>
  <scstep>
   <time name="dav">    0.24    0.25</time>
   <time name="total">    0.99    0.99</time>
   <energy>
    <i name="alphaZ">      0.89086884 </i>
    <i name="ewald">    113.38468579 </i>
    <i name="hartreedc">   -366.20650784 </i>
    <i name="XCdc">     32.90625854 </i>
    <i name="pawpsdc">    148.63809250 </i>
    <i name="pawaedc">   -151.15255198 </i>
    <i name="eentropy">      0.00000000 </i>
    <i name="bandstr">   -119.52023459 </i>
    <i name="atom">    318.69135808 </i>
    <i name="e_fr_energy">    -22.36803067 </i>
    <i name="e_wo_entrp">    -22.36803067 </i>
    <i name="e_0_energy">    -22.36803067 </i>
   </energy>
  </scstep>
  <scstep>
   <time name="dav">    0.32    0.32</time>
   <time name="total">    1.08    1.13</time>
   <energy>
    <i name="e_fr_energy">    -22.28942670 </i>
    <i name="e_wo_entrp">    -22.28942670 </i>
    <i name="e_0_energy">    -22.28942670 </i>
   </energy>
  </scstep>
  <scstep>
   <time name="dav">    0.33    0.33</time>
   <time name="total">    1.09    1.17</time>
   <energy>
    <i name="e_fr_energy">    -22.27258172 </i>
    <i name="e_wo_entrp">    -22.27258172 </i>
    <i name="e_0_energy">    -22.27258172 </i>
   </energy>
  </scstep>
  <scstep>
   <time name="dav">    0.23    0.23</time>
   <time name="total">    0.95    1.03</time>
   <energy>
    <i name="e_fr_energy">    -22.26990836 </i>
    <i name="e_wo_entrp">    -22.26990836 </i>
    <i name="e_0_energy">    -22.26990836 </i>
   </energy>
  </scstep>
  <scstep>
   <time name="dav">    0.23    0.23</time>
   <time name="total">    0.93    0.99</time>
   <energy>
    <i name="e_fr_energy">    -22.26989389 </i>
    <i name="e_wo_entrp">    -22.26989389 </i>
    <i name="e_0_energy">    -22.26989389 </i>
   </energy>
  </scstep>
  <scstep>
   <time name="dav">    0.23    0.23</time>
   <time name="total">    0.84    0.88</time>
   <energy>
    <i name="alphaZ">      0.89086884 </i>
    <i name="ewald">    113.38468579 </i>
    <i name="hartreedc">   -370.55373565 </i>
    <i name="XCdc">     33.10336354 </i>
    <i name="pawpsdc">    164.20572932 </i>
    <i name="pawaedc">   -166.79948400 </i>
    <i name="eentropy">      0.00000000 </i>
    <i name="bandstr">   -115.19275087 </i>
    <i name="atom">    318.69135808 </i>
    <i name="e_fr_energy">    -22.26996495 </i>
    <i name="e_wo_entrp">    -22.26996495 </i>
    <i name="e_0_energy">    -22.26996495 </i>
   </energy>
  </scstep>
  <structure>
   <crystal>
    <varray name="basis" >
     <v>       8.00000000       0.00000000       0.00000000 </v>
     <v>       0.00000000       8.00000000       0.00000000 </v>
     <v>       0.00000000       0.00000000       8.00000000 </v>
    </varray>
    <i name="volume">    512.00000000 </i>
    <varray name="rec_basis" >
     <v>       0.12500000       0.00000000       0.00000000 </v>
     <v>       0.00000000       0.12500000       0.00000000 </v>
     <v>       0.00000000       0.00000000       0.12500000 </v>
    </varray>
   </crystal>
   <varray name="positions" >
    <v>       0.00000000       0.00000000       0.78886155 </v>
    <v>       0.00000000       0.00000000       0.21113845 </v>
    <v>       0.00000000       0.00000000       0.06993571 </v>
    <v>       0.00000000       0.00000000       0.93006429 </v>
   </varray>
  </structure>
  <varray name="forces" >
   <v>       0.00000000       0.00000000       1.80799723 </v>
   <v>       0.00000000       0.00000000      -1.80799723 </v>
   <v>       0.00000000       0.00000000      13.76370581 </v>
   <v>       0.00000000       0.00000000     -13.76370581 </v>
  </varray>
  <varray name="stress" >
   <v>      -7.79115672       0.00000000       0.00000000 </v>
   <v>       0.00000000      -7.79115672       0.00000000 </v>
   <v>       0.00000000       0.00000000      20.09845642 </v>
  </varray>
  <energy>
   <i name="e_fr_energy">    -22.26996495 </i>
   <i name="e_wo_entrp">    -22.26996495 </i>
   <i name="e_0_energy">      0.00000000 </i>
  </energy>
  <time name="totalsc">    7.17    7.57</time>
 </calculation>
 <calculation>
  <scstep>
   <time name="dav">    0.23    0.23</time>
   <time name="total">    0.93    0.98</time>
   <energy>
    <i name="alphaZ">      0.89086884 </i>
    <i name="ewald">    103.34000036 </i>
    <i name="hartreedc">   -364.53047253 </i>
    <i name="XCdc">     32.92037876 </i>
    <i name="pawpsdc">    164.46124123 </i>
    <i name="pawaedc">   -167.05654828 </i>
    <i name="eentropy">      0.00000000 </i>
    <i name="bandstr">   -111.66929234 </i>
    <i name="atom">    318.69135808 </i>
    <i name="e_fr_energy">    -22.95246587 </i>
    <i name="e_wo_entrp">    -22.95246587 </i>
    <i name="e_0_energy">    -22.95246587 </i>
   </energy>
  </scstep>
  <scstep>
   <time name="dav">    0.30    0.30</time>
   <time name="total">    0.98    0.98</time>
   <energy>
    <i name="e_fr_energy">    -22.88649557 </i>
    <i name="e_wo_entrp">    -22.88649557 </i>
    <i name="e_0_energy">    -22.88649557 </i>
   </energy>
  </scstep>
  <scstep>
   <time name="dav">    0.23    0.23</time>
   <time name="total">    0.86    0.88</time>
   <energy>
    <i name="e_fr_energy">    -22.87171261 </i>
    <i name="e_wo_entrp">    -22.87171261 </i>
    <i name="e_0_energy">    -22.87171261 </i>
   </energy>
  </scstep>
  <scstep>
   <time name="dav">    0.23    0.23</time>
   <time name="total">    0.88    0.90</time>
   <energy>
    <i name="e_fr_energy">    -22.87155918 </i>
    <i name="e_wo_entrp">    -22.87155918 </i>
    <i name="e_0_energy">    -22.87155918 </i>
   </energy>
  </scstep>
  <scstep>
   <time name="dav">    0.21    0.21</time>
   <time name="total">    0.80    0.81</time>
   <energy>
    <i name="e_fr_energy">    -22.87068147 </i>
    <i name="e_wo_entrp">    -22.87068147 </i>
    <i name="e_0_energy">    -22.87068147 </i>
   </energy>
  </scstep>
  <scstep>
   <time name="dav">    0.21    0.21</time>
   <time name="total">    0.74    1.28</time>
   <energy>
    <i name="alphaZ">      0.89086884 </i>
    <i name="ewald">    103.34000036 </i>
    <i name="hartreedc">   -360.70013837 </i>
    <i name="XCdc">     32.74666994 </i>
    <i name="pawpsdc">    149.68958221 </i>
    <i name="pawaedc">   -152.20837178 </i>
    <i name="eentropy">      0.00000000 </i>
    <i name="bandstr">   -115.32070446 </i>
    <i name="atom">    318.69135808 </i>
    <i name="e_fr_energy">    -22.87073517 </i>
    <i name="e_wo_entrp">    -22.87073517 </i>
    <i name="e_0_energy">    -22.87073517 </i>
   </energy>
  </scstep>
  <structure>
   <crystal>
    <varray name="basis" >
     <v>       8.00000000       0.00000000       0.00000000 </v>
     <v>       0.00000000       8.00000000       0.00000000 </v>
     <v>       0.00000000       0.00000000       8.00000000 </v>
    </varray>
    <i name="volume">    512.00000000 </i>
    <varray name="rec_basis" >
     <v>       0.12500000       0.00000000       0.00000000 </v>
     <v>       0.00000000       0.12500000       0.00000000 </v>
     <v>       0.00000000       0.00000000       0.12500000 </v>
    </varray>
   </crystal>
   <varray name="positions" >
    <v>       0.00000000       0.00000000       0.79058849 </v>
    <v>       0.00000000       0.00000000       0.20941151 </v>
    <v>       0.00000000       0.00000000       0.07548683 </v>
    <v>       0.00000000       0.00000000       0.92451317 </v>
   </varray>
  </structure>
  <varray name="forces" >
   <v>       0.00000000       0.00000000      -0.10067734 </v>
   <v>       0.00000000       0.00000000       0.10067734 </v>
   <v>       0.00000000       0.00000000       0.03225845 </v>
   <v>       0.00000000       0.00000000      -0.03225845 </v>
  </varray>
  <varray name="stress" >
   <v>      -7.81151875       0.00000000       0.00000000 </v>
   <v>       0.00000000      -7.81151875       0.00000000 </v>
   <v>       0.00000000       0.00000000      -8.40222314 </v>
  </varray>
  <energy>
   <i name="e_fr_energy">    -22.87073517 </i>
   <i name="e_wo_entrp">    -22.87073517 </i>
   <i name="e_0_energy">      0.00000000 </i>
  </energy>
  <time name="totalsc">    6.36    7.13</time>
  <eigenvalues>
   <array>
    <dimension dim="1">band</dimension>
    <dimension dim="2">kpoint</dimension>
    <dimension dim="3">spin</dimension>
    <field>eigene</field>
    <field>occ</field>
    <set>
     <set comment="spin 1">
      <set comment="kpoint 1">
       <r>  -18.3697    1.0000 </r>
       <r>  -13.7389    1.0000 </r>
       <r>  -11.8239    1.0000 </r>
       <r>   -6.8639    1.0000 </r>
       <r>   -6.8639    1.0000 </r>
       <r>   -0.3750    0.0000 </r>
       <r>   -0.0336    0.0000 </r>
       <r>   -0.0336    0.0000 </r>
       <r>    1.0763    0.0000 </r>
      </set>
     </set>
    </set>
   </array>
  </eigenvalues>
  <separator name="orbital magnetization" >
   <v name="MAGDIPOLOUT">      0.00000000      0.00000000      0.00000000</v>
  </separator>
  <dos>
   <i name="efermi">     -5.91119301 </i>
   <total>
    <array>
     <dimension dim="1">gridpoints</dimension>
     <dimension dim="2">spin</dimension>
     <field>energy</field>
     <field>total</field>
     <field>integrated</field>
     <set>
      <set comment="spin 1">
       <r>   -20.3697     0.0000     0.0000 </r>
       <r>   -20.2916     0.0000     0.0000 </r>
       <r>   -20.2134     0.0000     0.0000 </r>
       <r>   -20.1353     0.0000     0.0000 </r>
       <r>   -20.0571     0.0000     0.0000 </r>
       <r>   -19.9790     0.0000     0.0000 </r>
       <r>   -19.9008     0.0000     0.0000 </r>
       <r>   -19.8227     0.0000     0.0000 </r>
       <r>   -19.7445     0.0000     0.0000 </r>
       <r>   -19.6664     0.0000     0.0000 </r>
       <r>   -19.5882     0.0000     0.0000 </r>
       <r>   -19.5101     0.0000     0.0000 </r>
       <r>   -19.4319     0.0000     0.0000 </r>
       <r>   -19.3538     0.0000     0.0000 </r>
       <r>   -19.2756     0.0000     0.0000 </r>
       <r>   -19.1974     0.0000     0.0000 </r>
       <r>   -19.1193     0.0000     0.0000 </r>
       <r>   -19.0411     0.0000     0.0000 </r>
       <r>   -18.9630     0.0003     0.0000 </r>
       <r>   -18.8848     0.0031     0.0003 </r>
       <r>   -18.8067     0.0222     0.0020 </r>
       <r>   -18.7285     0.1174     0.0112 </r>
       <r>   -18.6504     0.4611     0.0472 </r>
       <r>   -18.5722     1.3437     0.1522 </r>
       <r>   -18.4941     2.9063     0.3794 </r>
       <r>   -18.4159     4.6669     0.7441 </r>
       <r>   -18.3378     5.5641     1.1790 </r>
       <r>   -18.2596     4.9257     1.5639 </r>
       <r>   -18.1814     3.2377     1.8170 </r>
       <r>   -18.1033     1.5800     1.9404 </r>
       <r>   -18.0251     0.5723     1.9852 </r>
       <r>   -17.9470     0.1539     1.9972 </r>
       <r>   -17.8688     0.0307     1.9996 </r>
       <r>   -17.7907     0.0045     2.0000 </r>
       <r>   -17.7125     0.0005     2.0000 </r>
       <r>   -17.6344     0.0000     2.0000 </r>
       <r>   -17.5562     0.0000     2.0000 </r>
       <r>   -17.4781     0.0000     2.0000 </r>
       <r>   -17.3999     0.0000     2.0000 </r>
       <r>   -17.3218     0.0000     2.0000 </r>
       <r>   -17.2436     0.0000     2.0000 </r>
       <r>   -17.1655     0.0000     2.0000 </r>
       <r>   -17.0873     0.0000     2.0000 </r>
       <r>   -17.0091     0.0000     2.0000 </r>
       <r>   -16.9310     0.0000     2.0000 </r>
       <r>   -16.8528     0.0000     2.0000 </r>
       <r>   -16.7747     0.0000     2.0000 </r>
       <r>   -16.6965     0.0000     2.0000 </r>
       <r>   -16.6184     0.0000     2.0000 </r>
       <r>   -16.5402     0.0000     2.0000 </r>
       <r>   -16.4621     0.0000     2.0000 </r>
       <r>   -16.3839     0.0000     2.0000 </r>
       <r>   -16.3058     0.0000     2.0000 </r>
       <r>   -16.2276     0.0000     2.0000 </r>
       <r>   -16.1495     0.0000     2.0000 </r>
       <r>   -16.0713     0.0000     2.0000 </r>
       <r>   -15.9932     0.0000     2.0000 </r>
       <r>   -15.9150     0.0000     2.0000 </r>
       <r>   -15.8368     0.0000     2.0000 </r>
       <r>   -15.7587     0.0000     2.0000 </r>
       <r>   -15.6805     0.0000     2.0000 </r>
       <r>   -15.6024     0.0000     2.0000 </r>
       <r>   -15.5242     0.0000     2.0000 </r>
       <r>   -15.4461     0.0000     2.0000 </r>
       <r>   -15.3679     0.0000     2.0000 </r>
       <r>   -15.2898     0.0000     2.0000 </r>
       <r>   -15.2116     0.0000     2.0000 </r>
       <r>   -15.1335     0.0000     2.0000 </r>
       <r>   -15.0553     0.0000     2.0000 </r>
       <r>   -14.9772     0.0000     2.0000 </r>
       <r>   -14.8990     0.0000     2.0000 </r>
       <r>   -14.8208     0.0000     2.0000 </r>
       <r>   -14.7427     0.0000     2.0000 </r>
       <r>   -14.6645     0.0000     2.0000 </r>
       <r>   -14.5864     0.0000     2.0000 </r>
       <r>   -14.5082     0.0000     2.0000 </r>
       <r>   -14.4301     0.0000     2.0000 </r>
       <r>   -14.3519     0.0002     2.0000 </r>
       <r>   -14.2738     0.0018     2.0002 </r>
       <r>   -14.1956     0.0139     2.0012 </r>
       <r>   -14.1175     0.0792     2.0074 </r>
       <r>   -14.0393     0.3353     2.0336 </r>
       <r>   -13.9612     1.0537     2.1160 </r>
       <r>   -13.8830     2.4581     2.3081 </r>
       <r>   -13.8049     4.2568     2.6408 </r>
       <r>   -13.7267     5.4734     3.0685 </r>
       <r>   -13.6485     5.2256     3.4769 </r>
       <r>   -13.5704     3.7044     3.7665 </r>
       <r>   -13.4922     1.9496     3.9188 </r>
       <r>   -13.4141     0.7617     3.9784 </r>
       <r>   -13.3359     0.2209     3.9956 </r>
       <r>   -13.2578     0.0475     3.9993 </r>
       <r>   -13.1796     0.0076     3.9999 </r>
       <r>   -13.1015     0.0009     4.0000 </r>
       <r>   -13.0233     0.0001     4.0000 </r>
       <r>   -12.9452     0.0000     4.0000 </r>
       <r>   -12.8670     0.0000     4.0000 </r>
       <r>   -12.7889     0.0000     4.0000 </r>
       <r>   -12.7107     0.0000     4.0000 </r>
       <r>   -12.6325     0.0000     4.0000 </r>
       <r>   -12.5544     0.0000     4.0000 </r>
       <r>   -12.4762     0.0000     4.0000 </r>
       <r>   -12.3981     0.0006     4.0000 </r>
       <r>   -12.3199     0.0052     4.0005 </r>
       <r>   -12.2418     0.0342     4.0031 </r>
       <r>   -12.1636     0.1684     4.0163 </r>
       <r>   -12.0855     0.6148     4.0643 </r>
       <r>   -12.0073     1.6662     4.1946 </r>
       <r>   -11.9292     3.3520     4.4565 </r>
       <r>   -11.8510     5.0062     4.8478 </r>
       <r>   -11.7729     5.5516     5.2817 </r>
       <r>   -11.6947     4.5712     5.6389 </r>
       <r>   -11.6166     2.7947     5.8573 </r>
       <r>   -11.5384     1.2684     5.9565 </r>
       <r>   -11.4602     0.4273     5.9899 </r>
       <r>   -11.3821     0.1068     5.9982 </r>
       <r>   -11.3039     0.0198     5.9998 </r>
       <r>   -11.2258     0.0027     6.0000 </r>
       <r>   -11.1476     0.0003     6.0000 </r>
       <r>   -11.0695     0.0000     6.0000 </r>
       <r>   -10.9913     0.0000     6.0000 </r>
       <r>   -10.9132     0.0000     6.0000 </r>
       <r>   -10.8350     0.0000     6.0000 </r>
       <r>   -10.7569     0.0000     6.0000 </r>
       <r>   -10.6787     0.0000     6.0000 </r>
       <r>   -10.6006     0.0000     6.0000 </r>
       <r>   -10.5224     0.0000     6.0000 </r>
       <r>   -10.4443     0.0000     6.0000 </r>
       <r>   -10.3661     0.0000     6.0000 </r>
       <r>   -10.2879     0.0000     6.0000 </r>
       <r>   -10.2098     0.0000     6.0000 </r>
       <r>   -10.1316     0.0000     6.0000 </r>
       <r>   -10.0535     0.0000     6.0000 </r>
       <r>    -9.9753     0.0000     6.0000 </r>
       <r>    -9.8972     0.0000     6.0000 </r>
       <r>    -9.8190     0.0000     6.0000 </r>
       <r>    -9.7409     0.0000     6.0000 </r>
       <r>    -9.6627     0.0000     6.0000 </r>
       <r>    -9.5846     0.0000     6.0000 </r>
       <r>    -9.5064     0.0000     6.0000 </r>
       <r>    -9.4283     0.0000     6.0000 </r>
       <r>    -9.3501     0.0000     6.0000 </r>
       <r>    -9.2719     0.0000     6.0000 </r>
       <r>    -9.1938     0.0000     6.0000 </r>
       <r>    -9.1156     0.0000     6.0000 </r>
       <r>    -9.0375     0.0000     6.0000 </r>
       <r>    -8.9593     0.0000     6.0000 </r>
       <r>    -8.8812     0.0000     6.0000 </r>
       <r>    -8.8030     0.0000     6.0000 </r>
       <r>    -8.7249     0.0000     6.0000 </r>
       <r>    -8.6467     0.0000     6.0000 </r>
       <r>    -8.5686     0.0000     6.0000 </r>
       <r>    -8.4904     0.0000     6.0000 </r>
       <r>    -8.4123     0.0000     6.0000 </r>
       <r>    -8.3341     0.0000     6.0000 </r>
       <r>    -8.2560     0.0000     6.0000 </r>
       <r>    -8.1778     0.0000     6.0000 </r>
       <r>    -8.0996     0.0000     6.0000 </r>
       <r>    -8.0215     0.0000     6.0000 </r>
       <r>    -7.9433     0.0000     6.0000 </r>
       <r>    -7.8652     0.0000     6.0000 </r>
       <r>    -7.7870     0.0000     6.0000 </r>
       <r>    -7.7089     0.0000     6.0000 </r>
       <r>    -7.6307     0.0000     6.0000 </r>
       <r>    -7.5526     0.0000     6.0000 </r>
       <r>    -7.4744     0.0004     6.0000 </r>
       <r>    -7.3963     0.0039     6.0003 </r>
       <r>    -7.3181     0.0295     6.0026 </r>
       <r>    -7.2400     0.1669     6.0157 </r>
       <r>    -7.1618     0.6998     6.0704 </r>
       <r>    -7.0836     2.1777     6.2406 </r>
       <r>    -7.0055     5.0302     6.6337 </r>
       <r>    -6.9273     8.6258     7.3078 </r>
       <r>    -6.8492    10.9823     8.1661 </r>
       <r>    -6.7710    10.3823     8.9775 </r>
       <r>    -6.6929     7.2877     9.5471 </r>
       <r>    -6.6147     3.7980     9.8439 </r>
       <r>    -6.5366     1.4693     9.9588 </r>
       <r>    -6.4584     0.4219     9.9917 </r>
       <r>    -6.3803     0.0899     9.9987 </r>
       <r>    -6.3021     0.0142     9.9999 </r>
       <r>    -6.2240     0.0017    10.0000 </r>
       <r>    -6.1458     0.0001    10.0000 </r>
       <r>    -6.0677     0.0000    10.0000 </r>
       <r>    -5.9895     0.0000    10.0000 </r>
       <r>    -5.9113     0.0000    10.0000 </r>
       <r>    -5.8332     0.0000    10.0000 </r>
       <r>    -5.7550     0.0000    10.0000 </r>
       <r>    -5.6769     0.0000    10.0000 </r>
       <r>    -5.5987     0.0000    10.0000 </r>
       <r>    -5.5206     0.0000    10.0000 </r>
       <r>    -5.4424     0.0000    10.0000 </r>
       <r>    -5.3643     0.0000    10.0000 </r>
       <r>    -5.2861     0.0000    10.0000 </r>
       <r>    -5.2080     0.0000    10.0000 </r>
       <r>    -5.1298     0.0000    10.0000 </r>
       <r>    -5.0517     0.0000    10.0000 </r>
       <r>    -4.9735     0.0000    10.0000 </r>
       <r>    -4.8953     0.0000    10.0000 </r>
       <r>    -4.8172     0.0000    10.0000 </r>
       <r>    -4.7390     0.0000    10.0000 </r>
       <r>    -4.6609     0.0000    10.0000 </r>
       <r>    -4.5827     0.0000    10.0000 </r>
       <r>    -4.5046     0.0000    10.0000 </r>
       <r>    -4.4264     0.0000    10.0000 </r>
       <r>    -4.3483     0.0000    10.0000 </r>
       <r>    -4.2701     0.0000    10.0000 </r>
       <r>    -4.1920     0.0000    10.0000 </r>
       <r>    -4.1138     0.0000    10.0000 </r>
       <r>    -4.0357     0.0000    10.0000 </r>
       <r>    -3.9575     0.0000    10.0000 </r>
       <r>    -3.8794     0.0000    10.0000 </r>
       <r>    -3.8012     0.0000    10.0000 </r>
       <r>    -3.7230     0.0000    10.0000 </r>
       <r>    -3.6449     0.0000    10.0000 </r>
       <r>    -3.5667     0.0000    10.0000 </r>
       <r>    -3.4886     0.0000    10.0000 </r>
       <r>    -3.4104     0.0000    10.0000 </r>
       <r>    -3.3323     0.0000    10.0000 </r>
       <r>    -3.2541     0.0000    10.0000 </r>
       <r>    -3.1760     0.0000    10.0000 </r>
       <r>    -3.0978     0.0000    10.0000 </r>
       <r>    -3.0197     0.0000    10.0000 </r>
       <r>    -2.9415     0.0000    10.0000 </r>
       <r>    -2.8634     0.0000    10.0000 </r>
       <r>    -2.7852     0.0000    10.0000 </r>
       <r>    -2.7071     0.0000    10.0000 </r>
       <r>    -2.6289     0.0000    10.0000 </r>
       <r>    -2.5507     0.0000    10.0000 </r>
       <r>    -2.4726     0.0000    10.0000 </r>
       <r>    -2.3944     0.0000    10.0000 </r>
       <r>    -2.3163     0.0000    10.0000 </r>
       <r>    -2.2381     0.0000    10.0000 </r>
       <r>    -2.1600     0.0000    10.0000 </r>
       <r>    -2.0818     0.0000    10.0000 </r>
       <r>    -2.0037     0.0000    10.0000 </r>
       <r>    -1.9255     0.0000    10.0000 </r>
       <r>    -1.8474     0.0000    10.0000 </r>
       <r>    -1.7692     0.0000    10.0000 </r>
       <r>    -1.6911     0.0000    10.0000 </r>
       <r>    -1.6129     0.0000    10.0000 </r>
       <r>    -1.5347     0.0000    10.0000 </r>
       <r>    -1.4566     0.0000    10.0000 </r>
       <r>    -1.3784     0.0000    10.0000 </r>
       <r>    -1.3003     0.0000    10.0000 </r>
       <r>    -1.2221     0.0000    10.0000 </r>
       <r>    -1.1440     0.0000    10.0000 </r>
       <r>    -1.0658     0.0000    10.0000 </r>
       <r>    -0.9877     0.0002    10.0000 </r>
       <r>    -0.9095     0.0018    10.0002 </r>
       <r>    -0.8314     0.0140    10.0013 </r>
       <r>    -0.7532     0.0798    10.0075 </r>
       <r>    -0.6751     0.3376    10.0339 </r>
       <r>    -0.5969     1.0605    10.1168 </r>
       <r>    -0.5188     2.4803    10.3106 </r>
       <r>    -0.4406     4.3523    10.6508 </r>
       <r>    -0.3624     5.8870    11.1108 </r>
       <r>    -0.2843     6.6593    11.6313 </r>
       <r>    -0.2061     7.4354    12.2124 </r>
       <r>    -0.1280     9.1597    12.9282 </r>
       <r>    -0.0498    11.0988    13.7957 </r>
       <r>     0.0283    11.2205    14.6726 </r>
       <r>     0.1065     8.7369    15.3554 </r>
       <r>     0.1846     5.1039    15.7543 </r>
       <r>     0.2628     2.2198    15.9278 </r>
       <r>     0.3409     0.7172    15.9838 </r>
       <r>     0.4191     0.1720    15.9973 </r>
       <r>     0.4972     0.0311    15.9997 </r>
       <r>     0.5754     0.0086    16.0004 </r>
       <r>     0.6536     0.0311    16.0028 </r>
       <r>     0.7317     0.1539    16.0148 </r>
       <r>     0.8099     0.5723    16.0596 </r>
       <r>     0.8880     1.5800    16.1830 </r>
       <r>     0.9662     3.2377    16.4361 </r>
       <r>     1.0443     4.9257    16.8210 </r>
       <r>     1.1225     5.5641    17.2559 </r>
       <r>     1.2006     4.6669    17.6206 </r>
       <r>     1.2788     2.9063    17.8478 </r>
       <r>     1.3569     1.3437    17.9528 </r>
       <r>     1.4351     0.4611    17.9888 </r>
       <r>     1.5132     0.1174    17.9980 </r>
       <r>     1.5914     0.0222    17.9997 </r>
       <r>     1.6695     0.0031    18.0000 </r>
       <r>     1.7477     0.0003    18.0000 </r>
       <r>     1.8259     0.0000    18.0000 </r>
       <r>     1.9040     0.0000    18.0000 </r>
       <r>     1.9822     0.0000    18.0000 </r>
       <r>     2.0603     0.0000    18.0000 </r>
       <r>     2.1385     0.0000    18.0000 </r>
       <r>     2.2166     0.0000    18.0000 </r>
       <r>     2.2948     0.0000    18.0000 </r>
       <r>     2.3729     0.0000    18.0000 </r>
       <r>     2.4511     0.0000    18.0000 </r>
       <r>     2.5292     0.0000    18.0000 </r>
       <r>     2.6074     0.0000    18.0000 </r>
       <r>     2.6855     0.0000    18.0000 </r>
       <r>     2.7637     0.0000    18.0000 </r>
       <r>     2.8418     0.0000    18.0000 </r>
       <r>     2.9200     0.0000    18.0000 </r>
       <r>     2.9982     0.0000    18.0000 </r>
       <r>     3.0763     0.0000    18.0000 </r>
      </set>
     </set>
    </array>
   </total>
  </dos>
 </calculation>
 <structure name="finalpos" >
  <crystal>
   <varray name="basis" >
    <v>       8.00000000       0.00000000       0.00000000 </v>
    <v>       0.00000000       8.00000000       0.00000000 </v>
    <v>       0.00000000       0.00000000       8.00000000 </v>
   </varray>
   <i name="volume">    512.00000000 </i>
   <varray name="rec_basis" >
    <v>       0.12500000       0.00000000       0.00000000 </v>
    <v>       0.00000000       0.12500000       0.00000000 </v>
    <v>       0.00000000       0.00000000       0.12500000 </v>
   </varray>
  </crystal>
  <varray name="positions" >
   <v>       0.00000000       0.00000000       0.79058849 </v>
   <v>       0.00000000       0.00000000       0.20941151 </v>
   <v>       0.00000000       0.00000000       0.07548683 </v>
   <v>       0.00000000       0.00000000       0.92451317 </v>
  </varray>
 </structure>
</modeling>
