 running on    1 nodes
 distr:  one band on    1 nodes,    1 groups
 vasp.5.2.12 11Nov11 complex                                                    
  
 POSCAR found :  2 types and       6 ions
 LDA part: xc-table for Pade appr. of Perdew
 POSCAR, INCAR and KPOINTS ok, starting setup
 WARNING: small aliasing (wrap around) errors must be expected
 FFT: planning ...(           1 )
 WAVECAR not read
 entering main loop
       N       E                     dE             d eps       ncg     rms          rms(c)
DAV:   1     0.553797183282E+01    0.55380E+01   -0.29636E+03    28   0.446E+02
DAV:   2    -0.326249895455E+02   -0.38163E+02   -0.38108E+02    22   0.130E+02
DAV:   3    -0.357985921405E+02   -0.31736E+01   -0.31732E+01    40   0.380E+01
DAV:   4    -0.358050819125E+02   -0.64898E-02   -0.64896E-02    32   0.151E+00
DAV:   5    -0.358050936287E+02   -0.11716E-04   -0.11714E-04    24   0.608E-02    0.917E+00
DAV:   6    -0.326826372410E+02    0.31225E+01   -0.54272E+00    22   0.151E+01    0.437E+00
DAV:   7    -0.319497206783E+02    0.73292E+00   -0.22625E+00    30   0.905E+00    0.180E+00
DAV:   8    -0.318393275795E+02    0.11039E+00   -0.26273E-01    20   0.395E+00    0.466E-01
DAV:   9    -0.318339385001E+02    0.53891E-02   -0.14498E-02    24   0.840E-01    0.312E-01
DAV:  10    -0.318363818160E+02   -0.24433E-02   -0.60207E-02    22   0.142E+00    0.208E-01
DAV:  11    -0.318372373005E+02   -0.85548E-03   -0.25631E-03    22   0.398E-01    0.136E-01
DAV:  12    -0.318416037599E+02   -0.43665E-02   -0.19765E-03    20   0.327E-01    0.559E-02
DAV:  13    -0.318441451003E+02   -0.25413E-02   -0.23000E-03    22   0.287E-01    0.484E-02
DAV:  14    -0.318450801338E+02   -0.93503E-03   -0.30063E-04    22   0.117E-01    0.221E-02
DAV:  15    -0.318452116478E+02   -0.13151E-03   -0.20632E-04    24   0.913E-02    0.108E-02
DAV:  16    -0.318453375442E+02   -0.12590E-03   -0.34109E-05    20   0.353E-02    0.361E-03
DAV:  17    -0.318453469717E+02   -0.94275E-05   -0.14112E-06    22   0.892E-03
   1 F= -.31845347E+02 E0= -.31845347E+02  d E =-.318453E+02
 curvature:   0.00 expect dE= 0.000E+00 dE for cont linesearch  0.000E+00
 trial: gam= 0.00000 g(F)=  0.425E-01 g(S)=  0.000E+00 ort = 0.000E+00 (trialstep = 0.100E+01)
 search vector abs. value=  0.425E-01
 bond charge predicted
       N       E                     dE             d eps       ncg     rms          rms(c)
DAV:   1    -0.318276321321E+02    0.17705E-01   -0.18538E+00    22   0.124E+01    0.485E-01
DAV:   2    -0.318266259085E+02    0.10062E-02   -0.34692E-02    20   0.132E+00    0.307E-01
DAV:   3    -0.318249433188E+02    0.16826E-02   -0.64095E-03    22   0.628E-01    0.360E-02
DAV:   4    -0.318249836723E+02   -0.40353E-04   -0.66851E-04    22   0.165E-01
   2 F= -.31824984E+02 E0= -.31824984E+02  d E =0.203633E-01
 trial-energy change:    0.020363  1 .order    0.019627   -0.042494    0.081747
 step:   0.3341(harm=  0.3420)  dis= 0.00599  next Energy=   -31.852418 (dE=-0.707E-02)
 bond charge predicted
       N       E                     dE             d eps       ncg     rms          rms(c)
DAV:   1    -0.318534303252E+02   -0.28487E-01   -0.81920E-01    22   0.823E+00    0.316E-01
DAV:   2    -0.318531189796E+02    0.31135E-03   -0.15473E-02    20   0.890E-01    0.205E-01
DAV:   3    -0.318524199395E+02    0.69904E-03   -0.34815E-03    20   0.453E-01    0.335E-02
DAV:   4    -0.318524014236E+02    0.18516E-04   -0.38745E-04    20   0.137E-01
   3 F= -.31852401E+02 E0= -.31852401E+02  d E =-.705445E-02
 curvature:  -0.17 expect dE=-0.482E-02 dE for cont linesearch -0.586E-07
 trial: gam= 0.66109 g(F)=  0.282E-01 g(S)=  0.000E+00 ort = 0.121E-03 (trialstep = 0.785E+00)
 search vector abs. value=  0.469E-01
 bond charge predicted
       N       E                     dE             d eps       ncg     rms          rms(c)
DAV:   1    -0.318541378580E+02   -0.17179E-02   -0.12348E+00    20   0.100E+01    0.398E-01
DAV:   2    -0.318494907800E+02    0.46471E-02   -0.15803E-02    20   0.116E+00    0.205E-01
DAV:   3    -0.318487196147E+02    0.77117E-03   -0.13979E-02    30   0.739E-01    0.815E-02
DAV:   4    -0.318484841187E+02    0.23550E-03   -0.96139E-04    20   0.199E-01    0.360E-02
DAV:   5    -0.318485077870E+02   -0.23668E-04   -0.11956E-04    24   0.754E-02
   4 F= -.31848508E+02 E0= -.31848508E+02  d E =0.389364E-02
 trial-energy change:    0.003894  1 .order    0.003394   -0.022200    0.028987
 step:   0.3291(harm=  0.3403)  dis= 0.00589  next Energy=   -31.857020 (dE=-0.462E-02)
 bond charge predicted
       N       E                     dE             d eps       ncg     rms          rms(c)
DAV:   1    -0.318586247918E+02   -0.10141E-01   -0.40930E-01    20   0.577E+00    0.222E-01
DAV:   2    -0.318572792932E+02    0.13455E-02   -0.50458E-03    20   0.666E-01    0.119E-01
DAV:   3    -0.318570784491E+02    0.20084E-03   -0.49384E-03    20   0.442E-01    0.497E-02
DAV:   4    -0.318569820923E+02    0.96357E-04   -0.40928E-04    24   0.136E-01
   5 F= -.31856982E+02 E0= -.31856982E+02  d E =-.458067E-02
 curvature:  -0.28 expect dE=-0.142E-04 dE for cont linesearch -0.242E-05
 trial: gam=-0.00935 g(F)=  0.503E-04 g(S)=  0.000E+00 ort = 0.635E-03 (trialstep = 0.694E+00)
 search vector abs. value=  0.425E-04
 reached required accuracy - stopping structural energy minimisation
 writing wavefunctions
NPROCS =  1
