   6   6   0   0
  0.8533333E+02  0.8000000E-09  0.8000000E-09  0.8000000E-09  0.5000000E-15
  1.000000000000000E-004
  CAR 
 unknown system                          
      3.30541698    -20.43901374  301     -5.40071970      1.00000000
    -20.439  0.0000E+00  0.0000E+00
    -20.360  0.0000E+00  0.0000E+00
    -20.281  0.0000E+00  0.0000E+00
    -20.202  0.0000E+00  0.0000E+00
    -20.122  0.0000E+00  0.0000E+00
    -20.043  0.0000E+00  0.0000E+00
    -19.964  0.0000E+00  0.0000E+00
    -19.885  0.0000E+00  0.0000E+00
    -19.806  0.0000E+00  0.0000E+00
    -19.727  0.0000E+00  0.0000E+00
    -19.648  0.0000E+00  0.0000E+00
    -19.568  0.1824E-14  0.1443E-15
    -19.489  0.1394E-12  0.1118E-13
    -19.410  0.8170E-11  0.6578E-12
    -19.331  0.3514E-09  0.2847E-10
    -19.252  0.1110E-07  0.9073E-09
    -19.173  0.2578E-06  0.2131E-07
    -19.093  0.4398E-05  0.3694E-06
    -19.014  0.5519E-04  0.4737E-05
    -18.935  0.5094E-03  0.4505E-04
    -18.856  0.3460E-02  0.3189E-03
    -18.777  0.1730E-01  0.1688E-02
    -18.698  0.6372E-01  0.6731E-02
    -18.619  0.1728E+00  0.2041E-01
    -18.539  0.3455E+00  0.4775E-01
    -18.460  0.5089E+00  0.8803E-01
    -18.381  0.5524E+00  0.1318E+00
    -18.302  0.4420E+00  0.1667E+00
    -18.223  0.2606E+00  0.1874E+00
    -18.144  0.1132E+00  0.1963E+00
    -18.065  0.3625E-01  0.1992E+00
    -17.985  0.8546E-02  0.1999E+00
    -17.906  0.1484E-02  0.2000E+00
    -17.827  0.1896E-03  0.2000E+00
    -17.748  0.1783E-04  0.2000E+00
    -17.669  0.1233E-05  0.2000E+00
    -17.590  0.6267E-07  0.2000E+00
    -17.511  0.2342E-08  0.2000E+00
    -17.431  0.6427E-10  0.2000E+00
    -17.352  0.1296E-11  0.2000E+00
    -17.273  0.1936E-13  0.2000E+00
    -17.194  0.0000E+00  0.2000E+00
    -17.115  0.0000E+00  0.2000E+00
    -17.036  0.0000E+00  0.2000E+00
    -16.956  0.0000E+00  0.2000E+00
    -16.877  0.0000E+00  0.2000E+00
    -16.798  0.0000E+00  0.2000E+00
    -16.719  0.0000E+00  0.2000E+00
    -16.640  0.0000E+00  0.2000E+00
    -16.561  0.0000E+00  0.2000E+00
    -16.482  0.0000E+00  0.2000E+00
    -16.402  0.0000E+00  0.2000E+00
    -16.323  0.0000E+00  0.2000E+00
    -16.244  0.0000E+00  0.2000E+00
    -16.165  0.0000E+00  0.2000E+00
    -16.086  0.0000E+00  0.2000E+00
    -16.007  0.0000E+00  0.2000E+00
    -15.928  0.0000E+00  0.2000E+00
    -15.848  0.0000E+00  0.2000E+00
    -15.769  0.0000E+00  0.2000E+00
    -15.690  0.0000E+00  0.2000E+00
    -15.611  0.0000E+00  0.2000E+00
    -15.532  0.0000E+00  0.2000E+00
    -15.453  0.0000E+00  0.2000E+00
    -15.374  0.0000E+00  0.2000E+00
    -15.294  0.0000E+00  0.2000E+00
    -15.215  0.0000E+00  0.2000E+00
    -15.136  0.0000E+00  0.2000E+00
    -15.057  0.0000E+00  0.2000E+00
    -14.978  0.5611E-15  0.2000E+00
    -14.899  0.4475E-13  0.2000E+00
    -14.819  0.2848E-11  0.2000E+00
    -14.740  0.1330E-09  0.2000E+00
    -14.661  0.4562E-08  0.2000E+00
    -14.582  0.1149E-06  0.2000E+00
    -14.503  0.2129E-05  0.2000E+00
    -14.424  0.2899E-04  0.2000E+00
    -14.345  0.2904E-03  0.2000E+00
    -14.265  0.2140E-02  0.2002E+00
    -14.186  0.1161E-01  0.2011E+00
    -14.107  0.4639E-01  0.2048E+00
    -14.028  0.1365E+00  0.2156E+00
    -13.949  0.2960E+00  0.2390E+00
    -13.870  0.4729E+00  0.2764E+00
    -13.791  0.5568E+00  0.3205E+00
    -13.711  0.4832E+00  0.3588E+00
    -13.632  0.3091E+00  0.3832E+00
    -13.553  0.1457E+00  0.3947E+00
    -13.474  0.5058E-01  0.3988E+00
    -13.395  0.1294E-01  0.3998E+00
    -13.316  0.2437E-02  0.4000E+00
    -13.237  0.3379E-03  0.4000E+00
    -13.157  0.3448E-04  0.4000E+00
    -13.078  0.2588E-05  0.4000E+00
    -12.999  0.1428E-06  0.4000E+00
    -12.920  0.5792E-08  0.4000E+00
    -12.841  0.1726E-09  0.4000E+00
    -12.762  0.3778E-11  0.4000E+00
    -12.682  0.6088E-13  0.4000E+00
    -12.603  0.5611E-15  0.4000E+00
    -12.524  0.0000E+00  0.4000E+00
    -12.445  0.0000E+00  0.4000E+00
    -12.366  0.0000E+00  0.4000E+00
    -12.287  0.0000E+00  0.4000E+00
    -12.208  0.0000E+00  0.4000E+00
    -12.128  0.3928E-14  0.4000E+00
    -12.049  0.2940E-12  0.4000E+00
    -11.970  0.1630E-10  0.4000E+00
    -11.891  0.6639E-09  0.4000E+00
    -11.812  0.1986E-07  0.4000E+00
    -11.733  0.4364E-06  0.4000E+00
    -11.654  0.7051E-05  0.4000E+00
    -11.574  0.8377E-04  0.4000E+00
    -11.495  0.7322E-03  0.4001E+00
    -11.416  0.4710E-02  0.4004E+00
    -11.337  0.2230E-01  0.4022E+00
    -11.258  0.7779E-01  0.4084E+00
    -11.179  0.1999E+00  0.4242E+00
    -11.100  0.3784E+00  0.4541E+00
    -11.020  0.5280E+00  0.4959E+00
    -10.941  0.5429E+00  0.5389E+00
    -10.862  0.4114E+00  0.5715E+00
    -10.783  0.2298E+00  0.5896E+00
    -10.704  0.9457E-01  0.5971E+00
    -10.625  0.2867E-01  0.5994E+00
    -10.546  0.6403E-02  0.5999E+00
    -10.466  0.1053E-02  0.6000E+00
    -10.387  0.1363E-03  0.6000E+00
    -10.308  0.1145E-03  0.6000E+00
    -10.229  0.8781E-03  0.6001E+00
    -10.150  0.5490E-02  0.6005E+00
    -10.071  0.2529E-01  0.6025E+00
     -9.991  0.8580E-01  0.6093E+00
     -9.912  0.2144E+00  0.6263E+00
     -9.833  0.3949E+00  0.6575E+00
     -9.754  0.5360E+00  0.7000E+00
     -9.675  0.5361E+00  0.7424E+00
     -9.596  0.3953E+00  0.7737E+00
     -9.517  0.2147E+00  0.7907E+00
     -9.437  0.8597E-01  0.7975E+00
     -9.358  0.2535E-01  0.7995E+00
     -9.279  0.5507E-02  0.7999E+00
     -9.200  0.8807E-03  0.8000E+00
     -9.121  0.1037E-03  0.8000E+00
     -9.042  0.8976E-05  0.8000E+00
     -8.963  0.5719E-06  0.8000E+00
     -8.883  0.3696E-07  0.8000E+00
     -8.804  0.2396E-06  0.8000E+00
     -8.725  0.4106E-05  0.8000E+00
     -8.646  0.5192E-04  0.8000E+00
     -8.567  0.4830E-03  0.8000E+00
     -8.488  0.3307E-02  0.8003E+00
     -8.409  0.1667E-01  0.8016E+00
     -8.329  0.6186E-01  0.8065E+00
     -8.250  0.1691E+00  0.8199E+00
     -8.171  0.3407E+00  0.8469E+00
     -8.092  0.5058E+00  0.8869E+00
     -8.013  0.5533E+00  0.9307E+00
     -7.934  0.4462E+00  0.9660E+00
     -7.854  0.2652E+00  0.9870E+00
     -7.775  0.1161E+00  0.9962E+00
     -7.696  0.3746E-01  0.9992E+00
     -7.617  0.8902E-02  0.9999E+00
     -7.538  0.1558E-02  0.1000E+01
     -7.459  0.2006E-03  0.1000E+01
     -7.380  0.1901E-04  0.1000E+01
     -7.300  0.1325E-05  0.1000E+01
     -7.221  0.6958E-07  0.1000E+01
     -7.142  0.4890E-07  0.1000E+01
     -7.063  0.9389E-06  0.1000E+01
     -6.984  0.1398E-04  0.1000E+01
     -6.905  0.1532E-03  0.1000E+01
     -6.826  0.1234E-02  0.1000E+01
     -6.746  0.7322E-02  0.1001E+01
     -6.667  0.3198E-01  0.1003E+01
     -6.588  0.1029E+00  0.1011E+01
     -6.509  0.2438E+00  0.1031E+01
     -6.430  0.4257E+00  0.1064E+01
     -6.351  0.5479E+00  0.1108E+01
     -6.272  0.5197E+00  0.1149E+01
     -6.192  0.3633E+00  0.1178E+01
     -6.113  0.1872E+00  0.1192E+01
     -6.034  0.7105E-01  0.1198E+01
     -5.955  0.1987E-01  0.1200E+01
     -5.876  0.4091E-02  0.1200E+01
     -5.797  0.6203E-03  0.1200E+01
     -5.717  0.6921E-04  0.1200E+01
     -5.638  0.5681E-05  0.1200E+01
     -5.559  0.3429E-06  0.1200E+01
     -5.480  0.1521E-07  0.1200E+01
     -5.401  0.4960E-09  0.1200E+01
     -5.322  0.1188E-10  0.1200E+01
     -5.243  0.2087E-12  0.1200E+01
     -5.163  0.2805E-14  0.1200E+01
     -5.084  0.0000E+00  0.1200E+01
     -5.005  0.0000E+00  0.1200E+01
     -4.926  0.0000E+00  0.1200E+01
     -4.847  0.0000E+00  0.1200E+01
     -4.768  0.0000E+00  0.1200E+01
     -4.689  0.0000E+00  0.1200E+01
     -4.609  0.0000E+00  0.1200E+01
     -4.530  0.0000E+00  0.1200E+01
     -4.451  0.0000E+00  0.1200E+01
     -4.372  0.0000E+00  0.1200E+01
     -4.293  0.0000E+00  0.1200E+01
     -4.214  0.0000E+00  0.1200E+01
     -4.135  0.0000E+00  0.1200E+01
     -4.055  0.0000E+00  0.1200E+01
     -3.976  0.0000E+00  0.1200E+01
     -3.897  0.0000E+00  0.1200E+01
     -3.818  0.0000E+00  0.1200E+01
     -3.739  0.0000E+00  0.1200E+01
     -3.660  0.0000E+00  0.1200E+01
     -3.580  0.0000E+00  0.1200E+01
     -3.501  0.0000E+00  0.1200E+01
     -3.422  0.0000E+00  0.1200E+01
     -3.343  0.0000E+00  0.1200E+01
     -3.264  0.0000E+00  0.1200E+01
     -3.185  0.0000E+00  0.1200E+01
     -3.106  0.0000E+00  0.1200E+01
     -3.026  0.0000E+00  0.1200E+01
     -2.947  0.0000E+00  0.1200E+01
     -2.868  0.0000E+00  0.1200E+01
     -2.789  0.0000E+00  0.1200E+01
     -2.710  0.0000E+00  0.1200E+01
     -2.631  0.0000E+00  0.1200E+01
     -2.552  0.0000E+00  0.1200E+01
     -2.472  0.0000E+00  0.1200E+01
     -2.393  0.0000E+00  0.1200E+01
     -2.314  0.0000E+00  0.1200E+01
     -2.235  0.0000E+00  0.1200E+01
     -2.156  0.0000E+00  0.1200E+01
     -2.077  0.0000E+00  0.1200E+01
     -1.998  0.0000E+00  0.1200E+01
     -1.918  0.0000E+00  0.1200E+01
     -1.839  0.1403E-15  0.1200E+01
     -1.760  0.1417E-13  0.1200E+01
     -1.681  0.9763E-12  0.1200E+01
     -1.602  0.4951E-10  0.1200E+01
     -1.523  0.1844E-08  0.1200E+01
     -1.443  0.5047E-07  0.1200E+01
     -1.364  0.1016E-05  0.1200E+01
     -1.285  0.1506E-04  0.1200E+01
     -1.206  0.1645E-03  0.1200E+01
     -1.127  0.1327E-02  0.1200E+01
     -1.048  0.7924E-02  0.1201E+01
     -0.969  0.3520E-01  0.1204E+01
     -0.889  0.1171E+00  0.1213E+01
     -0.810  0.2941E+00  0.1236E+01
     -0.731  0.5654E+00  0.1281E+01
     -0.652  0.8432E+00  0.1348E+01
     -0.573  0.9881E+00  0.1426E+01
     -0.494  0.9152E+00  0.1498E+01
     -0.415  0.6680E+00  0.1551E+01
     -0.335  0.3801E+00  0.1581E+01
     -0.256  0.1663E+00  0.1594E+01
     -0.177  0.5517E-01  0.1599E+01
     -0.098  0.1374E-01  0.1600E+01
     -0.019  0.2552E-02  0.1600E+01
      0.060  0.3512E-03  0.1600E+01
      0.139  0.3573E-04  0.1600E+01
      0.219  0.2681E-05  0.1600E+01
      0.298  0.1482E-06  0.1600E+01
      0.377  0.6819E-08  0.1600E+01
      0.456  0.2428E-07  0.1600E+01
      0.535  0.5367E-06  0.1600E+01
      0.614  0.8825E-05  0.1600E+01
      0.694  0.1072E-03  0.1600E+01
      0.773  0.9644E-03  0.1600E+01
      0.852  0.6425E-02  0.1601E+01
      0.931  0.3175E-01  0.1603E+01
      1.010  0.1165E+00  0.1612E+01
      1.089  0.3176E+00  0.1637E+01
      1.168  0.6442E+00  0.1688E+01
      1.248  0.9726E+00  0.1765E+01
      1.327  0.1093E+01  0.1852E+01
      1.406  0.9153E+00  0.1924E+01
      1.485  0.5705E+00  0.1970E+01
      1.564  0.2647E+00  0.1991E+01
      1.643  0.9132E-01  0.1998E+01
      1.722  0.2341E-01  0.2000E+01
      1.802  0.4456E-02  0.2000E+01
      1.881  0.6289E-03  0.2000E+01
      1.960  0.6573E-04  0.2000E+01
      2.039  0.5083E-05  0.2000E+01
      2.118  0.2904E-06  0.2000E+01
      2.197  0.1225E-07  0.2000E+01
      2.276  0.3809E-09  0.2000E+01
      2.356  0.8728E-11  0.2000E+01
      2.435  0.1476E-12  0.2000E+01
      2.514  0.1683E-14  0.2000E+01
      2.593  0.0000E+00  0.2000E+01
      2.672  0.0000E+00  0.2000E+01
      2.751  0.0000E+00  0.2000E+01
      2.831  0.0000E+00  0.2000E+01
      2.910  0.0000E+00  0.2000E+01
      2.989  0.0000E+00  0.2000E+01
      3.068  0.0000E+00  0.2000E+01
      3.147  0.0000E+00  0.2000E+01
      3.226  0.0000E+00  0.2000E+01
      3.305  0.0000E+00  0.2000E+01
