    6    6   10    1
  0.8533333E+02  0.8000000E-09  0.8000000E-09  0.8000000E-09  0.5000000E-15
  1.000000000000000E-004
  CAR 
 unknown system                          
   12    1   10
 
  0.0000000E+00  0.0000000E+00  0.0000000E+00  0.1000000E+01
   1      -18.439014
   2      -13.827342
   3      -11.013156
   4       -9.753945
   5       -8.068586
   6       -6.364359
   7       -0.667772
   8       -0.529589
   9        1.252569
  10        1.305417
