 vasp.5.2.12 11Nov11 complex                                                    
  
 executed on             LinuxIFC date 2012.11.03  01:30:19
 running on    1 nodes
 distr:  one band on    1 nodes,    1 groups


--------------------------------------------------------------------------------------------------------


 INCAR:
 POTCAR:   PAW_PBE H 15Jun2001                    
 POTCAR:   PAW_PBE C 08Apr2002                    
 POTCAR:   PAW_PBE H 15Jun2001                    
   VRHFIN =H: ultrasoft test                                                    
   LEXCH  = PE                                                                  
   EATOM  =    12.4884 eV,     .9179 Ry                                         
                                                                                
   TITEL  = PAW_PBE H 15Jun2001                                                 
   LULTRA =        F    use ultrasoft PP ?                                      
   IUNSCR =        0    unscreen: 0-lin 1-nonlin 2-no                           
   RPACOR =     .000    partial core radius                                     
   POMASS =    1.000; ZVAL   =    1.000    mass and valenz                      
   RCORE  =    1.100    outmost cutoff radius                                   
   RWIGS  =     .700; RWIGS  =     .370    wigner-seitz radius (au A)           
   ENMAX  =  250.000; ENMIN  =  200.000 eV                                      
   RCLOC  =     .701    cutoff for local pot                                    
   LCOR   =        T    correct aug charges                                     
   LPAW   =        T    paw PP                                                  
   EAUG   =  400.000                                                            
   RMAX   =    2.174    core radius for proj-oper                               
   RAUG   =    1.200    factor for augmentation sphere                          
   RDEP   =    1.112    radius for radial grids                                 
   QCUT   =   -5.749; QGAM   =   11.498    optimization parameters              
                                                                                
   Description                                                                  
     l     E      TYP  RCUT    TYP  RCUT                                        
     0   .000     23  1.100                                                     
     0   .500     23  1.100                                                     
     1  -.300     23  1.100                                                     
  local pseudopotential read in
  atomic valenz-charges read in
  non local Contribution for L=           0  read in
    real space projection operators read in
  non local Contribution for L=           0  read in
    real space projection operators read in
  non local Contribution for L=           1  read in
    real space projection operators read in
    PAW grid and wavefunctions read in
 
   number of l-projection  operators is LMAX  =           3
   number of lm-projection operators is LMMAX =           5
 
 POTCAR:   PAW_PBE C 08Apr2002                    
   VRHFIN =C: s2p2                                                              
   LEXCH  = PE                                                                  
   EATOM  =   147.1560 eV,   10.8157 Ry                                         
                                                                                
   TITEL  = PAW_PBE C 08Apr2002                                                 
   LULTRA =        F    use ultrasoft PP ?                                      
   IUNSCR =        0    unscreen: 0-lin 1-nonlin 2-no                           
   RPACOR =     .000    partial core radius                                     
   POMASS =   12.011; ZVAL   =    4.000    mass and valenz                      
   RCORE  =    1.500    outmost cutoff radius                                   
   RWIGS  =    1.630; RWIGS  =     .863    wigner-seitz radius (au A)           
   ENMAX  =  400.000; ENMIN  =  300.000 eV                                      
   ICORE  =        2    local potential                                         
   LCOR   =        T    correct aug charges                                     
   LPAW   =        T    paw PP                                                  
   EAUG   =  644.873                                                            
   DEXC   =     .000                                                            
   RMAX   =    2.266    core radius for proj-oper                               
   RAUG   =    1.300    factor for augmentation sphere                          
   RDEP   =    1.501    radius for radial grids                                 
   RDEPT  =    1.300    core radius for aug-charge                              
   QCUT   =   -5.516; QGAM   =   11.032    optimization parameters              
                                                                                
   Description                                                                  
     l     E      TYP  RCUT    TYP  RCUT                                        
     0   .000     23  1.200                                                     
     0   .000     23  1.200                                                     
     1   .000     23  1.500                                                     
     1  2.500     23  1.500                                                     
     2   .000      7  1.500                                                     
  local pseudopotential read in
  atomic valenz-charges read in
  non local Contribution for L=           0  read in
    real space projection operators read in
  non local Contribution for L=           0  read in
    real space projection operators read in
  non local Contribution for L=           1  read in
    real space projection operators read in
  non local Contribution for L=           1  read in
    real space projection operators read in
    PAW grid and wavefunctions read in
 
   number of l-projection  operators is LMAX  =           4
   number of lm-projection operators is LMMAX =           8
 
 PAW_PBE H 15Jun2001                    :
 energy of atom  1       EATOM=  -12.4884
 kinetic energy error for atom=    0.0426 (will be added to EATOM!!)
 PAW_PBE C 08Apr2002                    :
 energy of atom  2       EATOM= -147.1560
 kinetic energy error for atom=    0.2561 (will be added to EATOM!!)
 
 
 POSCAR:  H  C                                   
  positions in cartesian coordinates
  No initial velocities read in
 exchange correlation table for  LEXCH =        8
   RHO(1)=    0.500       N(1)  =     2000
   RHO(2)=  100.500       N(2)  =     4000
 


--------------------------------------------------------------------------------------------------------


 ion  position               nearest neighbor table
   1  0.000  0.115  0.155-   5 1.08
   2  0.000  0.885  0.155-   5 1.08
   3  0.000  0.115  0.845-   6 1.08
   4  0.000  0.885  0.845-   6 1.08
   5  0.000  0.000  0.083-   1 1.08   2 1.08   6 1.33
   6  0.000  0.000  0.917-   3 1.08   4 1.08   5 1.33
 
  LATTYP: Found a simple cubic cell.
 ALAT       =     8.0000000000
  
  Lattice vectors:
  
 A1 = (   8.0000000000,   0.0000000000,   0.0000000000)
 A2 = (   0.0000000000,   8.0000000000,   0.0000000000)
 A3 = (   0.0000000000,   0.0000000000,   8.0000000000)
 Subroutine PRICEL returns:
 Original cell was already a primitive cell.
 

Analysis of symmetry for initial positions (statically):

 Routine SETGRP: Setting up the symmetry group for a 
 simple cubic supercell.


 Subroutine GETGRP returns: Found  8 space group operations
 (whereof  8 operations were pure point group operations)
 out of a pool of 48 trial point group operations.


The static configuration has the point symmetry D_2h.

Analysis of symmetry for dynamics (positions and initial velocities):

 Subroutine DYNSYM returns: Found  8 space group operations
 (whereof  8 operations were pure point group operations)
 out of a pool of  8 trial space group operations
 (whereof  8 operations were pure point group operations)
 and found also     1 'primitive' translations


The dynamic configuration has the point symmetry D_2h.
 
 
 KPOINTS: KPOINTS created by Atomic Simulation Env

Automatic generation of k-mesh.
 
 Subroutine IBZKPT returns following result:
 ===========================================
 
 Found      1 irreducible k-points:
 
 Following reciprocal coordinates:
            Coordinates               Weight
  0.000000  0.000000  0.000000      1.000000
 
 Following cartesian coordinates:
            Coordinates               Weight
  0.000000  0.000000  0.000000      1.000000
 


--------------------------------------------------------------------------------------------------------




 Dimension of arrays:
   k-points           NKPTS =      1   k-points in BZ     NKDIM =      1   number of bands    NBANDS=     10
   number of dos      NEDOS =    301   number of ions     NIONS =      6
   non local maximal  LDIM  =      4   non local SUM 2l+1 LMDIM =      8
   total plane-waves  NPLWV =  46656
   max r-space proj   IRMAX =      1   max aug-charges    IRDMAX=   1275
   dimension x,y,z NGX =    36 NGY =   36 NGZ =   36
   dimension x,y,z NGXF=    72 NGYF=   72 NGZF=   72
   support grid    NGXF=    72 NGYF=   72 NGZF=   72
   ions per type =               4   2
 NGX,Y,Z   is equivalent  to a cutoff of   7.48,  7.48,  7.48 a.u.
 NGXF,Y,Z  is equivalent  to a cutoff of  14.96, 14.96, 14.96 a.u.


 I would recommend the setting:
   dimension x,y,z NGX =    34 NGY =   34 NGZ =   34
 SYSTEM =  unknown system                          
 POSCAR =   H  C                                   

 Startparameter for this run:
   NWRITE =      2    write-flag & timer
   PREC   = normal    normal or accurate (medium, high low for compatibility)
   ISTART =      0    job   : 0-new  1-cont  2-samecut
   ICHARG =      2    charge: 1-file 2-atom 10-const
   ISPIN  =      1    spin polarized calculation?
   LNONCOLLINEAR =      F non collinear calculations
   LSORBIT =      F    spin-orbit coupling
   INIWAV =      1    electr: 0-lowe 1-rand  2-diag
   LASPH  =      F    aspherical Exc in radial PAW
   METAGGA=      F    non-selfconsistent MetaGGA calc.

 Electronic Relaxation 1
   ENCUT  =  300.0 eV  22.05 Ry    4.70 a.u.  11.30 11.30 11.30*2*pi/ulx,y,z
   ENINI  =  300.0     initial cutoff
   ENAUG  =  644.9 eV  augmentation charge cutoff
   NELM   =     60;   NELMIN=  2; NELMDL= -5     # of ELM steps 
   EDIFF  = 0.1E-03   stopping-criterion for ELM
   LREAL  =      F    real-space projection
   NLSPLINE    = F    spline interpolate recip. space projectors
   LCOMPAT=      F    compatible to vasp.4.4
   GGA_COMPAT  = T    GGA compatible to vasp.4.4-vasp.4.6
   LMAXPAW     = -100 max onsite density
   LMAXMIX     =    2 max onsite mixed and CHGCAR
   VOSKOWN=      0    Vosko Wilk Nusair interpolation
   ROPT   =    0.00000   0.00000
 Ionic relaxation
   EDIFFG = 0.1E-02   stopping-criterion for IOM
   NSW    =     10    number of steps for IOM
   NBLOCK =      1;   KBLOCK =     10    inner block; outer block 
   IBRION =      2    ionic relax: 0-MD 1-quasi-New 2-CG
   NFREE  =      1    steps in history (QN), initial steepest desc. (CG)
   ISIF   =      2    stress and relaxation
   IWAVPR =     11    prediction:  0-non 1-charg 2-wave 3-comb
   ISYM   =      2    0-nonsym 1-usesym 2-fastsym
   LCORR  =      T    Harris-Foulkes like correction to forces

   POTIM  = 0.5000    time-step for ionic-motion
   TEIN   =    0.0    initial temperature
   TEBEG  =    0.0;   TEEND  =   0.0 temperature during run
   SMASS  =  -3.00    Nose mass-parameter (am)
   estimated Nose-frequenzy (Omega)   =  0.10E-29 period in steps =****** mass=  -0.146E-26a.u.
   SCALEE = 1.0000    scale energy and forces
   NPACO  =    256;   APACO  = 16.0  distance and # of slots for P.C.
   PSTRESS=    0.0 pullay stress

  Mass of Ions in am
   POMASS =   1.00 12.01
  Ionic Valenz
   ZVAL   =   1.00  4.00
  Atomic Wigner-Seitz radii
   RWIGS  =  -1.00 -1.00
  virtual crystal weights 
   VCA    =   1.00  1.00
   NELECT =      12.0000    total number of electrons
   NUPDOWN=      -1.0000    fix difference up-down

 DOS related values:
   EMIN   =  10.00;   EMAX   =-10.00  energy-range for DOS
   EFERMI =   0.00
   ISMEAR =     0;   SIGMA  =   0.20  broadening in eV -4-tet -1-fermi 0-gaus

 Electronic relaxation 2 (details)
   IALGO  =     38    algorithm
   LDIAG  =      T    sub-space diagonalisation (order eigenvalues)
   LSUBROT=      T    optimize rotation matrix (better conditioning)
   TURBO    =      0    0=normal 1=particle mesh
   IRESTART =      0    0=no restart 2=restart with 2 vectors
   NREBOOT  =      0    no. of reboots
   NMIN     =      0    reboot dimension
   EREF     =   0.00    reference energy to select bands
   IMIX   =      4    mixing-type and parameters
     AMIX     =   0.40;   BMIX     =  1.00
     AMIX_MAG =   1.60;   BMIX_MAG =  1.00
     AMIN     =   0.10
     WC   =   100.;   INIMIX=   1;  MIXPRE=   1

 Intra band minimization:
   WEIMIN = 0.0010     energy-eigenvalue tresh-hold
   EBREAK =  0.25E-05  absolut break condition
   DEPER  =   0.30     relativ break condition  

   TIME   =   0.40     timestep for ELM

  volume/ion in A,a.u.               =      85.33       575.86
  Fermi-wavevector in a.u.,A,eV,Ry     =   0.468503  0.885341  2.986405  0.219495
  Thomas-Fermi vector in A             =   1.459519
 
 Write flags
   LWAVE  =      T    write WAVECAR
   LCHARG =      T    write CHGCAR
   LVTOT  =      F    write LOCPOT, total local potential
   LVHAR  =      F    write LOCPOT, Hartree potential only
   LELF   =      F    write electronic localiz. function (ELF)
   LORBIT =      0    0 simple, 1 ext, 2 COOP (PROOUT)


 Dipole corrections
   LMONO  =      F    monopole corrections only (constant potential shift)
   LDIPOL =      F    correct potential (dipole corrections)
   IDIPOL =      0    1-x, 2-y, 3-z, 4-all directions 
   EPSILON=  1.0000000 bulk dielectric constant

 Exchange correlation treatment:
   GGA     =    --    GGA type
   LEXCH   =     8    internal setting for exchange type
   VOSKOWN=      0    Vosko Wilk Nusair interpolation
   LHFCALC =     F    Hartree Fock is set to
   LHFONE  =     F    Hartree Fock one center treatment
   AEXX    =    0.0000 exact exchange contribution

 Linear response parameters
   LEPSILON=     F    determine dielectric tensor
   LRPA    =     F    only Hartree local field effects (RPA)
   LNABLA  =     F    use nabla operator in PAW spheres
   LVEL    =     F    velocity operator in full k-point grid
   LINTERFAST=   F  fast interpolation
   KINTER  =     0    interpolate to denser k-point grid
   CSHIFT  =0.1000    complex shift for real part using Kramers Kronig
   OMEGAMAX=  -1.0    maximum frequency
   RTIME   =    0.100 relaxation time in fs

 Orbital magnetization related:
   ORBITALMAG=     F  switch on orbital magnetization
   LCHIMAG   =     F  perturbation theory with respect to B field
   DQ        =  0.001000  dq finite difference perturbation B field



--------------------------------------------------------------------------------------------------------


 conjugate gradient relaxation of ions
 charge density and potential will be updated during run
 non-spin polarized calculation
 Variant of blocked Davidson
 Davidson routine will perform the subspace rotation
 perform sub-space diagonalisation
    after iterative eigenvector-optimisation
 modified Broyden-mixing scheme, WC =      100.0
 initial mixing is a Kerker type mixing with AMIX =  0.4000 and BMIX =      1.0000
 Hartree-type preconditioning will be used
 using additional bands            4
 reciprocal scheme for non local part
 calculate Harris-corrections to forces 
   (improved forces if not selfconsistent)
 use gradient corrections 
 use of overlap-Matrix (Vanderbilt PP)
 Gauss-broadening in eV      SIGMA  =   0.20


--------------------------------------------------------------------------------------------------------


  energy-cutoff  :      300.00
  volume of cell :      512.00
      direct lattice vectors                 reciprocal lattice vectors
     8.000000000  0.000000000  0.000000000     0.125000000  0.000000000  0.000000000
     0.000000000  8.000000000  0.000000000     0.000000000  0.125000000  0.000000000
     0.000000000  0.000000000  8.000000000     0.000000000  0.000000000  0.125000000

  length of vectors
     8.000000000  8.000000000  8.000000000     0.125000000  0.125000000  0.125000000


 
 k-points in units of 2pi/SCALE and weight: KPOINTS created by Atomic Simulation Env
   0.00000000  0.00000000  0.00000000       1.000
 
 k-points in reciprocal lattice and weights: KPOINTS created by Atomic Simulation Env
   0.00000000  0.00000000  0.00000000       1.000
 
 position of ions in fractional coordinates (direct lattice) 
   0.00000000  0.11535400  0.15471187
   0.00000000  0.88464600  0.15471187
   0.00000000  0.11535400  0.84528813
   0.00000000  0.88464600  0.84528813
   0.00000000  0.00000000  0.08343500
   0.00000000  0.00000000  0.91656500
 
 position of ions in cartesian coordinates  (Angst):
   0.00000000  0.92283200  1.23769500
   0.00000000  7.07716800  1.23769500
   0.00000000  0.92283200  6.76230500
   0.00000000  7.07716800  6.76230500
   0.00000000  0.00000000  0.66748000
   0.00000000  0.00000000  7.33252000
 


--------------------------------------------------------------------------------------------------------


 k-point  1 :  0.00000.00000.0000  plane waves:    6031

 maximum and minimum number of plane-waves per node :      6031     6031

 maximum number of plane-waves:      6031
 maximum index in each direction: 
   IXMAX=   11   IYMAX=   11   IZMAX=   11
   IXMIN=  -11   IYMIN=  -11   IZMIN=  -11

 WARNING: aliasing errors must be expected set NGX to  46 to avoid them
 WARNING: aliasing errors must be expected set NGY to  46 to avoid them
 WARNING: aliasing errors must be expected set NGZ to  46 to avoid them
 aliasing errors are usually negligible using standard VASP settings
 and one can safely disregard these warnings

 serial   3D FFT for wavefunctions
 parallel 3D FFT for charge:
    minimum data exchange during FFTs selected (reduces bandwidth)


 total amount of memory used by VASP on root node    68601. kBytes
========================================================================

   base      :      30000. kBytes
   nonl-proj :       1350. kBytes
   fftplans  :      13060. kBytes
   grid      :      23203. kBytes
   one-center:         18. kBytes
   wavefun   :        970. kBytes
 
 Broyden mixing: mesh for mixing (old mesh)
   NGX = 23   NGY = 23   NGZ = 23
  (NGX  = 72   NGY  = 72   NGZ  = 72)
  gives a total of  12167 points

 initial charge density was supplied:
 charge density of overlapping atoms calculated
 number of electron      12.0000000 magnetization 
 keeping initial charge density in first step


--------------------------------------------------------------------------------------------------------


 Maximum index for augmentation-charges         1021 (set IRDMAX)


--------------------------------------------------------------------------------------------------------


 First call to EWALD:  gamma=   0.222
 Maximum number of real-space cells 3x 3x 3
 Maximum number of reciprocal cells 3x 3x 3

    FEWALD:  cpu time    0.00: real time    0.00


----------------------------------------- Iteration    1(   1)  ---------------------------------------


    POTLOK:  cpu time    0.55: real time    0.55
    SETDIJ:  cpu time    0.02: real time    0.02
     EDDAV:  cpu time    0.30: real time    0.30
       DOS:  cpu time    0.00: real time    0.00
    --------------------------------------------
      LOOP:  cpu time    0.87: real time    0.87

 eigenvalue-minimisations  :    28
 total energy-change (2. order) : 0.5537972E+01  (-0.2963585E+03)
 number of electron      12.0000000 magnetization 
 augmentation part       12.0000000 magnetization 

 Free energy of the ion-electron system (eV)
  ---------------------------------------------------
  alpha Z        PSCENC =         1.18323955
  Ewald energy   TEWEN  =       172.18683896
  -1/2 Hartree   DENC   =      -393.99545989
  -exchange  EXHF       =         0.00000000
  -V(xc)+E(xc)   XCENC  =        35.70888522
  PAW double counting   =        78.78818903      -81.12517927
  entropy T*S    EENTRO =         0.00000000
  eigenvalues    EBANDS =      -150.79145062
  atomic energy  EATOM  =       343.58290885
  ---------------------------------------------------
  free energy    TOTEN  =         5.53797183 eV

  energy without entropy =        5.53797183  energy(sigma->0) =        5.53797183


--------------------------------------------------------------------------------------------------------




----------------------------------------- Iteration    1(   2)  ---------------------------------------


     EDDAV:  cpu time    0.25: real time    0.25
       DOS:  cpu time    0.00: real time    0.00
    --------------------------------------------
      LOOP:  cpu time    0.25: real time    0.25

 eigenvalue-minimisations  :    22
 total energy-change (2. order) :-0.3816296E+02  (-0.3810754E+02)
 number of electron      12.0000000 magnetization 
 augmentation part       12.0000000 magnetization 

 Free energy of the ion-electron system (eV)
  ---------------------------------------------------
  alpha Z        PSCENC =         1.18323955
  Ewald energy   TEWEN  =       172.18683896
  -1/2 Hartree   DENC   =      -393.99545989
  -exchange  EXHF       =         0.00000000
  -V(xc)+E(xc)   XCENC  =        35.70888522
  PAW double counting   =        78.78818903      -81.12517927
  entropy T*S    EENTRO =         0.00000000
  eigenvalues    EBANDS =      -188.95441200
  atomic energy  EATOM  =       343.58290885
  ---------------------------------------------------
  free energy    TOTEN  =       -32.62498955 eV

  energy without entropy =      -32.62498955  energy(sigma->0) =      -32.62498955


--------------------------------------------------------------------------------------------------------




----------------------------------------- Iteration    1(   3)  ---------------------------------------


     EDDAV:  cpu time    0.40: real time    0.40
       DOS:  cpu time    0.00: real time    0.00
    --------------------------------------------
      LOOP:  cpu time    0.40: real time    0.42

 eigenvalue-minimisations  :    40
 total energy-change (2. order) :-0.3173603E+01  (-0.3173164E+01)
 number of electron      12.0000000 magnetization 
 augmentation part       12.0000000 magnetization 

 Free energy of the ion-electron system (eV)
  ---------------------------------------------------
  alpha Z        PSCENC =         1.18323955
  Ewald energy   TEWEN  =       172.18683896
  -1/2 Hartree   DENC   =      -393.99545989
  -exchange  EXHF       =         0.00000000
  -V(xc)+E(xc)   XCENC  =        35.70888522
  PAW double counting   =        78.78818903      -81.12517927
  entropy T*S    EENTRO =         0.00000000
  eigenvalues    EBANDS =      -192.12801460
  atomic energy  EATOM  =       343.58290885
  ---------------------------------------------------
  free energy    TOTEN  =       -35.79859214 eV

  energy without entropy =      -35.79859214  energy(sigma->0) =      -35.79859214


--------------------------------------------------------------------------------------------------------




----------------------------------------- Iteration    1(   4)  ---------------------------------------


     EDDAV:  cpu time    0.33: real time    0.33
       DOS:  cpu time    0.00: real time    0.00
    --------------------------------------------
      LOOP:  cpu time    0.33: real time    0.34

 eigenvalue-minimisations  :    32
 total energy-change (2. order) :-0.6489772E-02  (-0.6489588E-02)
 number of electron      12.0000000 magnetization 
 augmentation part       12.0000000 magnetization 

 Free energy of the ion-electron system (eV)
  ---------------------------------------------------
  alpha Z        PSCENC =         1.18323955
  Ewald energy   TEWEN  =       172.18683896
  -1/2 Hartree   DENC   =      -393.99545989
  -exchange  EXHF       =         0.00000000
  -V(xc)+E(xc)   XCENC  =        35.70888522
  PAW double counting   =        78.78818903      -81.12517927
  entropy T*S    EENTRO =         0.00000000
  eigenvalues    EBANDS =      -192.13450437
  atomic energy  EATOM  =       343.58290885
  ---------------------------------------------------
  free energy    TOTEN  =       -35.80508191 eV

  energy without entropy =      -35.80508191  energy(sigma->0) =      -35.80508191


--------------------------------------------------------------------------------------------------------




----------------------------------------- Iteration    1(   5)  ---------------------------------------


     EDDAV:  cpu time    0.26: real time    0.26
       DOS:  cpu time    0.00: real time    0.00
    CHARGE:  cpu time    0.07: real time    0.07
    MIXING:  cpu time    0.02: real time    0.02
    --------------------------------------------
      LOOP:  cpu time    0.35: real time    0.36

 eigenvalue-minimisations  :    24
 total energy-change (2. order) :-0.1171620E-04  (-0.1171436E-04)
 number of electron      11.9999997 magnetization 
 augmentation part        0.2950660 magnetization 

 Broyden mixing:
  rms(total) = 0.91714E+00    rms(broyden)= 0.91660E+00
  rms(prec ) = 0.14664E+01
  weight for this iteration     100.00

 Free energy of the ion-electron system (eV)
  ---------------------------------------------------
  alpha Z        PSCENC =         1.18323955
  Ewald energy   TEWEN  =       172.18683896
  -1/2 Hartree   DENC   =      -393.99545989
  -exchange  EXHF       =         0.00000000
  -V(xc)+E(xc)   XCENC  =        35.70888522
  PAW double counting   =        78.78818903      -81.12517927
  entropy T*S    EENTRO =         0.00000000
  eigenvalues    EBANDS =      -192.13451608
  atomic energy  EATOM  =       343.58290885
  ---------------------------------------------------
  free energy    TOTEN  =       -35.80509363 eV

  energy without entropy =      -35.80509363  energy(sigma->0) =      -35.80509363


--------------------------------------------------------------------------------------------------------




----------------------------------------- Iteration    1(   6)  ---------------------------------------


    POTLOK:  cpu time    0.53: real time    0.53
    SETDIJ:  cpu time    0.01: real time    0.02
     EDDAV:  cpu time    0.25: real time    0.25
       DOS:  cpu time    0.00: real time    0.00
    CHARGE:  cpu time    0.06: real time    0.06
    MIXING:  cpu time    0.02: real time    0.02
    --------------------------------------------
      LOOP:  cpu time    0.88: real time    0.89

 eigenvalue-minimisations  :    22
 total energy-change (2. order) : 0.3122456E+01  (-0.5427212E+00)
 number of electron      11.9999991 magnetization 
 augmentation part        0.2687926 magnetization 

 Broyden mixing:
  rms(total) = 0.43712E+00    rms(broyden)= 0.43692E+00
  rms(prec ) = 0.67443E+00
  weight for this iteration     100.00

 eigenvalues of (default mixing * dielectric matrix)
  average eigenvalue GAMMA=   1.5877
  1.5877

 Free energy of the ion-electron system (eV)
  ---------------------------------------------------
  alpha Z        PSCENC =         1.18323955
  Ewald energy   TEWEN  =       172.18683896
  -1/2 Hartree   DENC   =      -420.27062650
  -exchange  EXHF       =         0.00000000
  -V(xc)+E(xc)   XCENC  =        37.20009686
  PAW double counting   =       119.85001546     -122.41077722
  entropy T*S    EENTRO =         0.00000000
  eigenvalues    EBANDS =      -164.00433321
  atomic energy  EATOM  =       343.58290885
  ---------------------------------------------------
  free energy    TOTEN  =       -32.68263724 eV

  energy without entropy =      -32.68263724  energy(sigma->0) =      -32.68263724


--------------------------------------------------------------------------------------------------------




----------------------------------------- Iteration    1(   7)  ---------------------------------------


    POTLOK:  cpu time    0.53: real time    0.53
    SETDIJ:  cpu time    0.02: real time    0.02
     EDDAV:  cpu time    0.31: real time    0.31
       DOS:  cpu time    0.00: real time    0.00
    CHARGE:  cpu time    0.06: real time    0.06
    MIXING:  cpu time    0.02: real time    0.02
    --------------------------------------------
      LOOP:  cpu time    0.95: real time    0.96

 eigenvalue-minimisations  :    30
 total energy-change (2. order) : 0.7329166E+00  (-0.2262545E+00)
 number of electron      11.9999987 magnetization 
 augmentation part        0.2534409 magnetization 

 Broyden mixing:
  rms(total) = 0.18024E+00    rms(broyden)= 0.18001E+00
  rms(prec ) = 0.25747E+00
  weight for this iteration     100.00

 eigenvalues of (default mixing * dielectric matrix)
  average eigenvalue GAMMA=   2.0549
  1.6179  2.4919

 Free energy of the ion-electron system (eV)
  ---------------------------------------------------
  alpha Z        PSCENC =         1.18323955
  Ewald energy   TEWEN  =       172.18683896
  -1/2 Hartree   DENC   =      -440.30106561
  -exchange  EXHF       =         0.00000000
  -V(xc)+E(xc)   XCENC  =        38.50001604
  PAW double counting   =       152.87171288     -155.50591312
  entropy T*S    EENTRO =         0.00000000
  eigenvalues    EBANDS =      -144.46745824
  atomic energy  EATOM  =       343.58290885
  ---------------------------------------------------
  free energy    TOTEN  =       -31.94972068 eV

  energy without entropy =      -31.94972068  energy(sigma->0) =      -31.94972068


--------------------------------------------------------------------------------------------------------




----------------------------------------- Iteration    1(   8)  ---------------------------------------


    POTLOK:  cpu time    0.53: real time    0.53
    SETDIJ:  cpu time    0.01: real time    0.02
     EDDAV:  cpu time    0.23: real time    0.23
       DOS:  cpu time    0.00: real time    0.00
    CHARGE:  cpu time    0.06: real time    0.06
    MIXING:  cpu time    0.02: real time    0.02
    --------------------------------------------
      LOOP:  cpu time    0.86: real time    0.88

 eigenvalue-minimisations  :    20
 total energy-change (2. order) : 0.1103931E+00  (-0.2627283E-01)
 number of electron      11.9999989 magnetization 
 augmentation part        0.2532034 magnetization 

 Broyden mixing:
  rms(total) = 0.46559E-01    rms(broyden)= 0.46524E-01
  rms(prec ) = 0.89080E-01
  weight for this iteration     100.00

 eigenvalues of (default mixing * dielectric matrix)
  average eigenvalue GAMMA=   1.5464
  2.3280  1.5396  0.7715

 Free energy of the ion-electron system (eV)
  ---------------------------------------------------
  alpha Z        PSCENC =         1.18323955
  Ewald energy   TEWEN  =       172.18683896
  -1/2 Hartree   DENC   =      -445.53403128
  -exchange  EXHF       =         0.00000000
  -V(xc)+E(xc)   XCENC  =        39.00428263
  PAW double counting   =       158.57972109     -161.12146044
  entropy T*S    EENTRO =         0.00000000
  eigenvalues    EBANDS =      -139.72082695
  atomic energy  EATOM  =       343.58290885
  ---------------------------------------------------
  free energy    TOTEN  =       -31.83932758 eV

  energy without entropy =      -31.83932758  energy(sigma->0) =      -31.83932758


--------------------------------------------------------------------------------------------------------




----------------------------------------- Iteration    1(   9)  ---------------------------------------


    POTLOK:  cpu time    0.53: real time    0.53
    SETDIJ:  cpu time    0.01: real time    0.02
     EDDAV:  cpu time    0.26: real time    0.26
       DOS:  cpu time    0.00: real time    0.00
    CHARGE:  cpu time    0.06: real time    0.06
    MIXING:  cpu time    0.02: real time    0.02
    --------------------------------------------
      LOOP:  cpu time    0.90: real time    0.91

 eigenvalue-minimisations  :    24
 total energy-change (2. order) : 0.5389079E-02  (-0.1449792E-02)
 number of electron      11.9999989 magnetization 
 augmentation part        0.2526876 magnetization 

 Broyden mixing:
  rms(total) = 0.31237E-01    rms(broyden)= 0.31235E-01
  rms(prec ) = 0.67583E-01
  weight for this iteration     100.00

 eigenvalues of (default mixing * dielectric matrix)
  average eigenvalue GAMMA=   1.4911
  2.3485  1.5677  1.0240  1.0240

 Free energy of the ion-electron system (eV)
  ---------------------------------------------------
  alpha Z        PSCENC =         1.18323955
  Ewald energy   TEWEN  =       172.18683896
  -1/2 Hartree   DENC   =      -446.30342216
  -exchange  EXHF       =         0.00000000
  -V(xc)+E(xc)   XCENC  =        39.02801115
  PAW double counting   =       159.20019942     -161.75131916
  entropy T*S    EENTRO =         0.00000000
  eigenvalues    EBANDS =      -138.96039512
  atomic energy  EATOM  =       343.58290885
  ---------------------------------------------------
  free energy    TOTEN  =       -31.83393850 eV

  energy without entropy =      -31.83393850  energy(sigma->0) =      -31.83393850


--------------------------------------------------------------------------------------------------------




----------------------------------------- Iteration    1(  10)  ---------------------------------------


    POTLOK:  cpu time    0.53: real time    0.53
    SETDIJ:  cpu time    0.01: real time    0.02
     EDDAV:  cpu time    0.25: real time    0.25
       DOS:  cpu time    0.00: real time    0.00
    CHARGE:  cpu time    0.06: real time    0.06
    MIXING:  cpu time    0.02: real time    0.02
    --------------------------------------------
      LOOP:  cpu time    0.88: real time    0.89

 eigenvalue-minimisations  :    22
 total energy-change (2. order) :-0.2443316E-02  (-0.6020661E-02)
 number of electron      11.9999988 magnetization 
 augmentation part        0.2502625 magnetization 

 Broyden mixing:
  rms(total) = 0.20791E-01    rms(broyden)= 0.20764E-01
  rms(prec ) = 0.38085E-01
  weight for this iteration     100.00

 eigenvalues of (default mixing * dielectric matrix)
  average eigenvalue GAMMA=   1.8020
  3.2135  2.5889  1.3258  0.9409  0.9409

 Free energy of the ion-electron system (eV)
  ---------------------------------------------------
  alpha Z        PSCENC =         1.18323955
  Ewald energy   TEWEN  =       172.18683896
  -1/2 Hartree   DENC   =      -449.34875513
  -exchange  EXHF       =         0.00000000
  -V(xc)+E(xc)   XCENC  =        39.13552015
  PAW double counting   =       159.56379740     -162.13012214
  entropy T*S    EENTRO =         0.00000000
  eigenvalues    EBANDS =      -136.00980947
  atomic energy  EATOM  =       343.58290885
  ---------------------------------------------------
  free energy    TOTEN  =       -31.83638182 eV

  energy without entropy =      -31.83638182  energy(sigma->0) =      -31.83638182


--------------------------------------------------------------------------------------------------------




----------------------------------------- Iteration    1(  11)  ---------------------------------------


    POTLOK:  cpu time    0.52: real time    0.52
    SETDIJ:  cpu time    0.02: real time    0.02
     EDDAV:  cpu time    0.25: real time    0.25
       DOS:  cpu time    0.00: real time    0.00
    CHARGE:  cpu time    0.06: real time    0.06
    MIXING:  cpu time    0.02: real time    0.02
    --------------------------------------------
      LOOP:  cpu time    0.88: real time    0.89

 eigenvalue-minimisations  :    22
 total energy-change (2. order) :-0.8554846E-03  (-0.2563072E-03)
 number of electron      11.9999988 magnetization 
 augmentation part        0.2506010 magnetization 

 Broyden mixing:
  rms(total) = 0.13622E-01    rms(broyden)= 0.13621E-01
  rms(prec ) = 0.21875E-01
  weight for this iteration     100.00

 eigenvalues of (default mixing * dielectric matrix)
  average eigenvalue GAMMA=   1.8414
  3.7362  2.0151  1.9918  0.9259  1.1897  1.1897

 Free energy of the ion-electron system (eV)
  ---------------------------------------------------
  alpha Z        PSCENC =         1.18323955
  Ewald energy   TEWEN  =       172.18683896
  -1/2 Hartree   DENC   =      -449.92754275
  -exchange  EXHF       =         0.00000000
  -V(xc)+E(xc)   XCENC  =        39.14031694
  PAW double counting   =       157.97283228     -160.53166287
  entropy T*S    EENTRO =         0.00000000
  eigenvalues    EBANDS =      -135.44416828
  atomic energy  EATOM  =       343.58290885
  ---------------------------------------------------
  free energy    TOTEN  =       -31.83723730 eV

  energy without entropy =      -31.83723730  energy(sigma->0) =      -31.83723730


--------------------------------------------------------------------------------------------------------




----------------------------------------- Iteration    1(  12)  ---------------------------------------


    POTLOK:  cpu time    0.64: real time    0.64
    SETDIJ:  cpu time    0.02: real time    0.02
     EDDAV:  cpu time    0.29: real time    0.29
       DOS:  cpu time    0.00: real time    0.00
    CHARGE:  cpu time    0.09: real time    0.09
    MIXING:  cpu time    0.03: real time    0.03
    --------------------------------------------
      LOOP:  cpu time    1.06: real time    1.07

 eigenvalue-minimisations  :    20
 total energy-change (2. order) :-0.4366459E-02  (-0.1976480E-03)
 number of electron      11.9999989 magnetization 
 augmentation part        0.2506991 magnetization 

 Broyden mixing:
  rms(total) = 0.55895E-02    rms(broyden)= 0.55867E-02
  rms(prec ) = 0.10592E-01
  weight for this iteration     100.00

 eigenvalues of (default mixing * dielectric matrix)
  average eigenvalue GAMMA=   2.0074
  4.6458  2.8046  2.2769  1.2297  1.0643  1.0643  0.9663

 Free energy of the ion-electron system (eV)
  ---------------------------------------------------
  alpha Z        PSCENC =         1.18323955
  Ewald energy   TEWEN  =       172.18683896
  -1/2 Hartree   DENC   =      -450.24034167
  -exchange  EXHF       =         0.00000000
  -V(xc)+E(xc)   XCENC  =        39.15948286
  PAW double counting   =       158.66668721     -161.22146443
  entropy T*S    EENTRO =         0.00000000
  eigenvalues    EBANDS =      -135.15895509
  atomic energy  EATOM  =       343.58290885
  ---------------------------------------------------
  free energy    TOTEN  =       -31.84160376 eV

  energy without entropy =      -31.84160376  energy(sigma->0) =      -31.84160376


--------------------------------------------------------------------------------------------------------




----------------------------------------- Iteration    1(  13)  ---------------------------------------


    POTLOK:  cpu time    0.63: real time    0.63
    SETDIJ:  cpu time    0.02: real time    0.02
     EDDAV:  cpu time    0.30: real time    0.30
       DOS:  cpu time    0.00: real time    0.00
    CHARGE:  cpu time    0.09: real time    0.09
    MIXING:  cpu time    0.03: real time    0.03
    --------------------------------------------
      LOOP:  cpu time    1.07: real time    1.09

 eigenvalue-minimisations  :    22
 total energy-change (2. order) :-0.2541340E-02  (-0.2300030E-03)
 number of electron      11.9999989 magnetization 
 augmentation part        0.2511709 magnetization 

 Broyden mixing:
  rms(total) = 0.48397E-02    rms(broyden)= 0.48360E-02
  rms(prec ) = 0.78154E-02
  weight for this iteration     100.00

 eigenvalues of (default mixing * dielectric matrix)
  average eigenvalue GAMMA=   2.1805
  5.0853  3.6073  2.5009  1.9110  1.1997  1.1997  0.9701  0.9701

 Free energy of the ion-electron system (eV)
  ---------------------------------------------------
  alpha Z        PSCENC =         1.18323955
  Ewald energy   TEWEN  =       172.18683896
  -1/2 Hartree   DENC   =      -449.63445423
  -exchange  EXHF       =         0.00000000
  -V(xc)+E(xc)   XCENC  =        39.11753469
  PAW double counting   =       157.98251930     -160.53544723
  entropy T*S    EENTRO =         0.00000000
  eigenvalues    EBANDS =      -135.72728500
  atomic energy  EATOM  =       343.58290885
  ---------------------------------------------------
  free energy    TOTEN  =       -31.84414510 eV

  energy without entropy =      -31.84414510  energy(sigma->0) =      -31.84414510


--------------------------------------------------------------------------------------------------------




----------------------------------------- Iteration    1(  14)  ---------------------------------------


    POTLOK:  cpu time    0.63: real time    0.63
    SETDIJ:  cpu time    0.02: real time    0.02
     EDDAV:  cpu time    0.30: real time    0.30
       DOS:  cpu time    0.00: real time    0.00
    CHARGE:  cpu time    0.09: real time    0.09
    MIXING:  cpu time    0.03: real time    0.03
    --------------------------------------------
      LOOP:  cpu time    1.07: real time    1.09

 eigenvalue-minimisations  :    22
 total energy-change (2. order) :-0.9350335E-03  (-0.3006296E-04)
 number of electron      11.9999989 magnetization 
 augmentation part        0.2510408 magnetization 

 Broyden mixing:
  rms(total) = 0.22055E-02    rms(broyden)= 0.22050E-02
  rms(prec ) = 0.32993E-02
  weight for this iteration     100.00

 eigenvalues of (default mixing * dielectric matrix)
  average eigenvalue GAMMA=   2.0613
  5.3626  3.3649  2.4739  2.0789  1.1881  1.1881  1.0307  1.0307  0.8337

 Free energy of the ion-electron system (eV)
  ---------------------------------------------------
  alpha Z        PSCENC =         1.18323955
  Ewald energy   TEWEN  =       172.18683896
  -1/2 Hartree   DENC   =      -449.77840977
  -exchange  EXHF       =         0.00000000
  -V(xc)+E(xc)   XCENC  =        39.12538995
  PAW double counting   =       158.16664646     -160.72092095
  entropy T*S    EENTRO =         0.00000000
  eigenvalues    EBANDS =      -135.59077318
  atomic energy  EATOM  =       343.58290885
  ---------------------------------------------------
  free energy    TOTEN  =       -31.84508013 eV

  energy without entropy =      -31.84508013  energy(sigma->0) =      -31.84508013


--------------------------------------------------------------------------------------------------------




----------------------------------------- Iteration    1(  15)  ---------------------------------------


    POTLOK:  cpu time    0.64: real time    0.64
    SETDIJ:  cpu time    0.02: real time    0.02
     EDDAV:  cpu time    0.32: real time    0.32
       DOS:  cpu time    0.00: real time    0.00
    CHARGE:  cpu time    0.09: real time    0.09
    MIXING:  cpu time    0.03: real time    0.03
    --------------------------------------------
      LOOP:  cpu time    1.09: real time    1.11

 eigenvalue-minimisations  :    24
 total energy-change (2. order) :-0.1315140E-03  (-0.2063204E-04)
 number of electron      11.9999989 magnetization 
 augmentation part        0.2509073 magnetization 

 Broyden mixing:
  rms(total) = 0.10832E-02    rms(broyden)= 0.10811E-02
  rms(prec ) = 0.17489E-02
  weight for this iteration     100.00

 eigenvalues of (default mixing * dielectric matrix)
  average eigenvalue GAMMA=   2.2591
  6.1218  3.9223  2.9327  2.3609  1.9427  1.1788  1.1788  1.0238  1.0238  0.9048

 Free energy of the ion-electron system (eV)
  ---------------------------------------------------
  alpha Z        PSCENC =         1.18323955
  Ewald energy   TEWEN  =       172.18683896
  -1/2 Hartree   DENC   =      -449.87266234
  -exchange  EXHF       =         0.00000000
  -V(xc)+E(xc)   XCENC  =        39.12836598
  PAW double counting   =       158.19524070     -160.75077895
  entropy T*S    EENTRO =         0.00000000
  eigenvalues    EBANDS =      -135.49836440
  atomic energy  EATOM  =       343.58290885
  ---------------------------------------------------
  free energy    TOTEN  =       -31.84521165 eV

  energy without entropy =      -31.84521165  energy(sigma->0) =      -31.84521165


--------------------------------------------------------------------------------------------------------




----------------------------------------- Iteration    1(  16)  ---------------------------------------


    POTLOK:  cpu time    0.64: real time    0.64
    SETDIJ:  cpu time    0.02: real time    0.02
     EDDAV:  cpu time    0.29: real time    0.29
       DOS:  cpu time    0.00: real time    0.00
    CHARGE:  cpu time    0.09: real time    0.09
    MIXING:  cpu time    0.03: real time    0.03
    --------------------------------------------
      LOOP:  cpu time    1.07: real time    1.09

 eigenvalue-minimisations  :    20
 total energy-change (2. order) :-0.1258964E-03  (-0.3410884E-05)
 number of electron      11.9999989 magnetization 
 augmentation part        0.2509402 magnetization 

 Broyden mixing:
  rms(total) = 0.36059E-03    rms(broyden)= 0.36052E-03
  rms(prec ) = 0.51880E-03
  weight for this iteration     100.00

 eigenvalues of (default mixing * dielectric matrix)
  average eigenvalue GAMMA=   2.1679
  6.1460  4.1648  2.8280  2.4130  1.8693  1.2346  1.2346  1.0482  1.0482  0.9262
  0.9336

 Free energy of the ion-electron system (eV)
  ---------------------------------------------------
  alpha Z        PSCENC =         1.18323955
  Ewald energy   TEWEN  =       172.18683896
  -1/2 Hartree   DENC   =      -449.83559464
  -exchange  EXHF       =         0.00000000
  -V(xc)+E(xc)   XCENC  =        39.12668072
  PAW double counting   =       158.16415296     -160.71928295
  entropy T*S    EENTRO =         0.00000000
  eigenvalues    EBANDS =      -135.53428100
  atomic energy  EATOM  =       343.58290885
  ---------------------------------------------------
  free energy    TOTEN  =       -31.84533754 eV

  energy without entropy =      -31.84533754  energy(sigma->0) =      -31.84533754


--------------------------------------------------------------------------------------------------------




----------------------------------------- Iteration    1(  17)  ---------------------------------------


    POTLOK:  cpu time    0.64: real time    0.64
    SETDIJ:  cpu time    0.02: real time    0.02
     EDDAV:  cpu time    0.30: real time    0.30
       DOS:  cpu time    0.00: real time    0.00
    --------------------------------------------
      LOOP:  cpu time    0.96: real time    0.98

 eigenvalue-minimisations  :    22
 total energy-change (2. order) :-0.9427500E-05  (-0.1411192E-06)
 number of electron      11.9999989 magnetization 
 augmentation part        0.2509402 magnetization 

 Free energy of the ion-electron system (eV)
  ---------------------------------------------------
  alpha Z        PSCENC =         1.18323955
  Ewald energy   TEWEN  =       172.18683896
  -1/2 Hartree   DENC   =      -449.82975908
  -exchange  EXHF       =         0.00000000
  -V(xc)+E(xc)   XCENC  =        39.12638818
  PAW double counting   =       158.16219473     -160.71725722
  entropy T*S    EENTRO =         0.00000000
  eigenvalues    EBANDS =      -135.53990094
  atomic energy  EATOM  =       343.58290885
  ---------------------------------------------------
  free energy    TOTEN  =       -31.84534697 eV

  energy without entropy =      -31.84534697  energy(sigma->0) =      -31.84534697


--------------------------------------------------------------------------------------------------------




 average (electrostatic) potential at core
  the test charge radii are     0.5201  0.6991
  (the norm of the test charge is              1.0000)
       1 -41.6351       2 -41.6351       3 -41.6351       4 -41.6351       5 -58.5096
       6 -58.5096
 
 
 
 E-fermi :  -5.3895     XC(G=0):  -1.6278     alpha+bet : -0.6079


 k-point   1 :       0.0000    0.0000    0.0000
  band No.  band energies     occupation 
      1     -18.4897      2.00000
      2     -13.9195      2.00000
      3     -11.0794      2.00000
      4      -9.7946      2.00000
      5      -8.1109      2.00000
      6      -6.3758      2.00000
      7      -0.6586      0.00000
      8      -0.4938      0.00000
      9       1.2972      0.00000
     10       1.3524      0.00000


--------------------------------------------------------------------------------------------------------


 soft charge-density along one line, spin component           1
         0         1         2         3         4         5         6         7         8         9
 total charge-density along one line
 
 pseudopotential strength for first ion, spin component:           1
 -2.343  -0.011   0.002   0.001   0.000
 -0.011   0.049   0.002   0.001   0.000
  0.002   0.002  -0.333   0.002   0.000
  0.001   0.001   0.002  -0.336   0.000
  0.000   0.000   0.000   0.000  -0.337
 total augmentation occupancy for first ion, spin component:           1
  1.734  -0.749  -0.248  -0.151   0.000
 -0.749   0.367   0.118   0.071   0.000
 -0.248   0.118   0.040   0.020   0.000
 -0.151   0.071   0.020   0.020   0.000
  0.000   0.000   0.000   0.000   0.009


------------------------ aborting loop because EDIFF is reached ----------------------------------------


    CHARGE:  cpu time    0.09: real time    0.09
    FORLOC:  cpu time    0.07: real time    0.07
    FORNL :  cpu time    0.05: real time    0.05
    STRESS:  cpu time    0.18: real time    0.18
    FORHAR:  cpu time    0.22: real time    0.22
    MIXING:  cpu time    0.03: real time    0.03

  FORCE on cell =-STRESS in cart. coord.  units (eV):
  Direction    XX          YY          ZZ          XY          YZ          ZX
  --------------------------------------------------------------------------------------
  Alpha Z     1.18324     1.18324     1.18324
  Ewald    -126.54399    72.50890   226.22179     0.00000     0.00000     0.00000
  Hartree    71.14447   141.09532   237.57704     0.00000     0.00000     0.00000
  E(xc)     -42.03989   -40.98547   -40.82149     0.00000     0.00000     0.00000
  Local     -65.26964  -311.48577  -562.10278     0.00000     0.00000     0.00000
  n-local   -17.03395   -19.16751   -18.72796     0.00000     0.00000     0.00000
  augment    -0.10340    -0.21910    -0.20210     0.00000     0.00000     0.00000
  Kinetic   175.85578   154.93966   154.24207     0.00000     0.00000     0.00000
  Fock        0.00000     0.00000     0.00000     0.00000     0.00000     0.00000
  -------------------------------------------------------------------------------------
  Total      -2.80738    -2.13073    -2.63020     0.00000     0.00000     0.00000
  in kB      -8.78501    -6.66761    -8.23056     0.00000     0.00000     0.00000
  external pressure =       -7.89 kB  Pullay stress =        0.00 kB


 VOLUME and BASIS-vectors are now :
 -----------------------------------------------------------------------------
  energy-cutoff  :      300.00
  volume of cell :      512.00
      direct lattice vectors                 reciprocal lattice vectors
     8.000000000  0.000000000  0.000000000     0.125000000  0.000000000  0.000000000
     0.000000000  8.000000000  0.000000000     0.000000000  0.125000000  0.000000000
     0.000000000  0.000000000  8.000000000     0.000000000  0.000000000  0.125000000

  length of vectors
     8.000000000  8.000000000  8.000000000     0.125000000  0.125000000  0.125000000


 FORCES acting on ions
    electron-ion (+dipol)            ewald-force                    non-local-force                 convergence-correction
 -----------------------------------------------------------------------------------------------
   0.226E-15 -.459E+02 -.357E+02   -.292E-16 0.512E+02 0.389E+02   0.827E-24 -.487E+01 -.299E+01   0.191E-14 -.684E-03 -.433E-03
   -.981E-15 0.459E+02 -.357E+02   -.953E-18 -.512E+02 0.389E+02   -.827E-24 0.487E+01 -.299E+01   0.330E-14 0.684E-03 -.433E-03
   -.567E-17 -.459E+02 0.357E+02   -.244E-17 0.512E+02 -.389E+02   0.827E-24 -.487E+01 0.299E+01   0.661E-14 -.684E-03 0.433E-03
   -.597E-16 0.459E+02 0.357E+02   0.148E-16 -.512E+02 -.389E+02   -.827E-24 0.487E+01 0.299E+01   0.773E-14 0.684E-03 0.433E-03
   -.178E-14 0.460E-14 -.964E+02   0.466E-16 -.492E-14 0.968E+02   0.000E+00 0.517E-25 -.612E+00   0.187E-13 0.255E-13 -.299E-02
   0.209E-14 -.395E-14 0.964E+02   -.582E-16 0.272E-14 -.968E+02   0.000E+00 0.000E+00 0.612E+00   0.389E-13 0.386E-13 0.299E-02
 -----------------------------------------------------------------------------------------------
   -.511E-15 0.717E-13 0.853E-13   -.294E-16 -.220E-14 0.000E+00   0.000E+00 0.517E-25 0.000E+00   0.772E-13 0.747E-13 -.204E-13
 
 
 POSITION                                       TOTAL-FORCE (eV/Angst)
 -----------------------------------------------------------------------------------
      0.00000      0.92283      1.23769         0.000000      0.371451      0.227009
      0.00000      7.07717      1.23769         0.000000     -0.371451      0.227009
      0.00000      0.92283      6.76231         0.000000      0.371451     -0.227009
      0.00000      7.07717      6.76231         0.000000     -0.371451     -0.227009
      0.00000      0.00000      0.66748         0.000000      0.000000     -0.247789
      0.00000      0.00000      7.33252         0.000000      0.000000      0.247789
 -----------------------------------------------------------------------------------
    total drift:                                0.000000      0.000000      0.000000


--------------------------------------------------------------------------------------------------------



  FREE ENERGIE OF THE ION-ELECTRON SYSTEM (eV)
  ---------------------------------------------------
  free  energy   TOTEN  =       -31.845347 eV

  energy  without entropy=      -31.845347  energy(sigma->0) =      -31.845347
 


--------------------------------------------------------------------------------------------------------


    POTLOK:  cpu time    0.67: real time    0.67


--------------------------------------------------------------------------------------------------------




--------------------------------------------------------------------------------------------------------


    WAVPRE:  cpu time    0.13: real time    0.13
    FEWALD:  cpu time    0.00: real time    0.00
    ORTHCH:  cpu time    0.01: real time    0.01
     LOOP+:  cpu time   16.04: real time   16.38


----------------------------------------- Iteration    2(   1)  ---------------------------------------


    POTLOK:  cpu time    0.60: real time    0.60
    SETDIJ:  cpu time    0.02: real time    0.02
     EDDAV:  cpu time    0.28: real time    0.28
       DOS:  cpu time    0.00: real time    0.00
    CHARGE:  cpu time    0.08: real time    0.08
    MIXING:  cpu time    0.02: real time    0.02
    --------------------------------------------
      LOOP:  cpu time    0.99: real time    0.99

 eigenvalue-minimisations  :    22
 total energy-change (2. order) : 0.1770541E-01  (-0.1853842E+00)
 number of electron      12.0000030 magnetization 
 augmentation part        0.2462443 magnetization 

 Broyden mixing:
  rms(total) = 0.48489E-01    rms(broyden)= 0.48395E-01
  rms(prec ) = 0.63534E-01
  weight for this iteration     100.00

 Free energy of the ion-electron system (eV)
  ---------------------------------------------------
  alpha Z        PSCENC =         1.18323955
  Ewald energy   TEWEN  =       169.31292587
  -1/2 Hartree   DENC   =      -448.42271869
  -exchange  EXHF       =         0.00000000
  -V(xc)+E(xc)   XCENC  =        39.02208362
  PAW double counting   =       158.16094928     -160.71588260
  entropy T*S    EENTRO =         0.00000000
  eigenvalues    EBANDS =      -133.95113800
  atomic energy  EATOM  =       343.58290885
  ---------------------------------------------------
  free energy    TOTEN  =       -31.82763213 eV

  energy without entropy =      -31.82763213  energy(sigma->0) =      -31.82763213


--------------------------------------------------------------------------------------------------------




----------------------------------------- Iteration    2(   2)  ---------------------------------------


    POTLOK:  cpu time    0.58: real time    0.58
    SETDIJ:  cpu time    0.02: real time    0.02
     EDDAV:  cpu time    0.26: real time    0.26
       DOS:  cpu time    0.00: real time    0.00
    CHARGE:  cpu time    0.08: real time    0.08
    MIXING:  cpu time    0.02: real time    0.02
    --------------------------------------------
      LOOP:  cpu time    0.96: real time    0.96

 eigenvalue-minimisations  :    20
 total energy-change (2. order) : 0.1006224E-02  (-0.3469223E-02)
 number of electron      12.0000030 magnetization 
 augmentation part        0.2469142 magnetization 

 Broyden mixing:
  rms(total) = 0.30668E-01    rms(broyden)= 0.30654E-01
  rms(prec ) = 0.39302E-01
  weight for this iteration     100.00

 eigenvalues of (default mixing * dielectric matrix)
  average eigenvalue GAMMA=   2.2761
  2.2761

 Free energy of the ion-electron system (eV)
  ---------------------------------------------------
  alpha Z        PSCENC =         1.18323955
  Ewald energy   TEWEN  =       169.31292587
  -1/2 Hartree   DENC   =      -447.89124223
  -exchange  EXHF       =         0.00000000
  -V(xc)+E(xc)   XCENC  =        38.98336888
  PAW double counting   =       156.79975663     -159.34791428
  entropy T*S    EENTRO =         0.00000000
  eigenvalues    EBANDS =      -134.44966918
  atomic energy  EATOM  =       343.58290885
  ---------------------------------------------------
  free energy    TOTEN  =       -31.82662591 eV

  energy without entropy =      -31.82662591  energy(sigma->0) =      -31.82662591


--------------------------------------------------------------------------------------------------------




----------------------------------------- Iteration    2(   3)  ---------------------------------------


    POTLOK:  cpu time    0.56: real time    0.56
    SETDIJ:  cpu time    0.02: real time    0.02
     EDDAV:  cpu time    0.28: real time    0.28
       DOS:  cpu time    0.00: real time    0.00
    CHARGE:  cpu time    0.08: real time    0.08
    MIXING:  cpu time    0.02: real time    0.02
    --------------------------------------------
      LOOP:  cpu time    0.96: real time    0.97

 eigenvalue-minimisations  :    22
 total energy-change (2. order) : 0.1682590E-02  (-0.6409507E-03)
 number of electron      12.0000030 magnetization 
 augmentation part        0.2473697 magnetization 

 Broyden mixing:
  rms(total) = 0.35999E-02    rms(broyden)= 0.35865E-02
  rms(prec ) = 0.51656E-02
  weight for this iteration     100.00

 eigenvalues of (default mixing * dielectric matrix)
  average eigenvalue GAMMA=   1.5920
  1.0761  2.1078

 Free energy of the ion-electron system (eV)
  ---------------------------------------------------
  alpha Z        PSCENC =         1.18323955
  Ewald energy   TEWEN  =       169.31292587
  -1/2 Hartree   DENC   =      -447.41165493
  -exchange  EXHF       =         0.00000000
  -V(xc)+E(xc)   XCENC  =        38.94638292
  PAW double counting   =       155.36718302     -157.90945223
  entropy T*S    EENTRO =         0.00000000
  eigenvalues    EBANDS =      -134.89647638
  atomic energy  EATOM  =       343.58290885
  ---------------------------------------------------
  free energy    TOTEN  =       -31.82494332 eV

  energy without entropy =      -31.82494332  energy(sigma->0) =      -31.82494332


--------------------------------------------------------------------------------------------------------




----------------------------------------- Iteration    2(   4)  ---------------------------------------


    POTLOK:  cpu time    0.57: real time    0.57
    SETDIJ:  cpu time    0.01: real time    0.02
     EDDAV:  cpu time    0.28: real time    0.28
       DOS:  cpu time    0.00: real time    0.00
    --------------------------------------------
      LOOP:  cpu time    0.86: real time    0.88

 eigenvalue-minimisations  :    22
 total energy-change (2. order) :-0.4035350E-04  (-0.6685063E-04)
 number of electron      12.0000030 magnetization 
 augmentation part        0.2473697 magnetization 

 Free energy of the ion-electron system (eV)
  ---------------------------------------------------
  alpha Z        PSCENC =         1.18323955
  Ewald energy   TEWEN  =       169.31292587
  -1/2 Hartree   DENC   =      -447.47903943
  -exchange  EXHF       =         0.00000000
  -V(xc)+E(xc)   XCENC  =        38.95086210
  PAW double counting   =       155.49410882     -158.03771893
  entropy T*S    EENTRO =         0.00000000
  eigenvalues    EBANDS =      -134.83227050
  atomic energy  EATOM  =       343.58290885
  ---------------------------------------------------
  free energy    TOTEN  =       -31.82498367 eV

  energy without entropy =      -31.82498367  energy(sigma->0) =      -31.82498367


--------------------------------------------------------------------------------------------------------




 average (electrostatic) potential at core
  the test charge radii are     0.5201  0.6991
  (the norm of the test charge is              1.0000)
       1 -41.4263       2 -41.4263       3 -41.4263       4 -41.4263       5 -58.5557
       6 -58.5557
 
 
 
 E-fermi :  -5.4903     XC(G=0):  -1.5882     alpha+bet : -0.6079


 k-point   1 :       0.0000    0.0000    0.0000
  band No.  band energies     occupation 
      1     -18.5486      2.00000
      2     -13.6926      2.00000
      3     -10.9696      2.00000
      4      -9.8393      2.00000
      5      -7.8917      2.00000
      6      -6.4743      2.00000
      7      -0.5279      0.00000
      8      -0.4745      0.00000
      9       1.2162      0.00000
     10       1.3533      0.00000


--------------------------------------------------------------------------------------------------------


 soft charge-density along one line, spin component           1
         0         1         2         3         4         5         6         7         8         9
 total charge-density along one line
 
 pseudopotential strength for first ion, spin component:           1
 -2.341  -0.011   0.001   0.001   0.000
 -0.011   0.049   0.001   0.001   0.000
  0.001   0.001  -0.335   0.002   0.000
  0.001   0.001   0.002  -0.337   0.000
  0.000   0.000   0.000   0.000  -0.339
 total augmentation occupancy for first ion, spin component:           1
  1.675  -0.724  -0.225  -0.141   0.000
 -0.724   0.356   0.108   0.066   0.000
 -0.225   0.108   0.035   0.017   0.000
 -0.141   0.066   0.017   0.017   0.000
  0.000   0.000   0.000   0.000   0.008


------------------------ aborting loop because EDIFF is reached ----------------------------------------


    CHARGE:  cpu time    0.08: real time    0.08
    FORLOC:  cpu time    0.06: real time    0.07
    FORNL :  cpu time    0.05: real time    0.05
    STRESS:  cpu time    0.18: real time    0.18
    FORHAR:  cpu time    0.20: real time    0.20
    MIXING:  cpu time    0.02: real time    0.02

  FORCE on cell =-STRESS in cart. coord.  units (eV):
  Direction    XX          YY          ZZ          XY          YZ          ZX
  --------------------------------------------------------------------------------------
  Alpha Z     1.18324     1.18324     1.18324
  Ewald    -126.57281    67.53586   228.34973     0.00000     0.00000     0.00000
  Hartree    70.41111   141.18114   235.90454     0.00000     0.00000     0.00000
  E(xc)     -41.85283   -40.79673   -40.61478     0.00000     0.00000     0.00000
  Local     -64.42023  -308.60231  -561.17925     0.00000     0.00000     0.00000
  n-local   -16.71644   -18.46179   -18.26389     0.00000     0.00000     0.00000
  augment    -0.11487    -0.20999    -0.22077     0.00000     0.00000     0.00000
  Kinetic   175.28692   153.54938   152.90981     0.00000     0.00000     0.00000
  Fock        0.00000     0.00000     0.00000     0.00000     0.00000     0.00000
  -------------------------------------------------------------------------------------
  Total      -2.79591    -4.62121    -1.93138     0.00000     0.00000     0.00000
  in kB      -8.74911   -14.46095    -6.04377     0.00000     0.00000     0.00000
  external pressure =       -9.75 kB  Pullay stress =        0.00 kB


 VOLUME and BASIS-vectors are now :
 -----------------------------------------------------------------------------
  energy-cutoff  :      300.00
  volume of cell :      512.00
      direct lattice vectors                 reciprocal lattice vectors
     8.000000000  0.000000000  0.000000000     0.125000000  0.000000000  0.000000000
     0.000000000  8.000000000  0.000000000     0.000000000  0.125000000  0.000000000
     0.000000000  0.000000000  8.000000000     0.000000000  0.000000000  0.125000000

  length of vectors
     8.000000000  8.000000000  8.000000000     0.125000000  0.125000000  0.125000000


 FORCES acting on ions
    electron-ion (+dipol)            ewald-force                    non-local-force                 convergence-correction
 -----------------------------------------------------------------------------------------------
   -.355E-15 -.447E+02 -.352E+02   0.253E-16 0.488E+02 0.378E+02   0.000E+00 -.448E+01 -.282E+01   0.239E-14 0.195E-02 -.149E-02
   0.113E-14 0.447E+02 -.352E+02   -.145E-16 -.488E+02 0.378E+02   0.000E+00 0.448E+01 -.282E+01   0.282E-14 -.195E-02 -.149E-02
   0.151E-14 -.447E+02 0.352E+02   0.287E-17 0.488E+02 -.378E+02   0.000E+00 -.448E+01 0.282E+01   0.584E-14 0.195E-02 0.149E-02
   0.174E-14 0.447E+02 0.352E+02   -.707E-17 -.488E+02 -.378E+02   0.000E+00 0.448E+01 0.282E+01   0.620E-14 -.195E-02 0.149E-02
   0.311E-16 -.563E-15 -.101E+03   0.776E-16 -.609E-14 0.103E+03   0.207E-24 0.000E+00 0.213E+00   0.191E-13 0.229E-13 -.842E-02
   -.195E-14 -.353E-14 0.101E+03   -.114E-15 0.170E-14 -.103E+03   -.207E-24 0.000E+00 -.213E+00   0.335E-13 0.379E-13 0.842E-02
 -----------------------------------------------------------------------------------------------
   0.210E-14 0.812E-13 0.227E-12   -.294E-16 -.439E-14 0.000E+00   0.000E+00 0.888E-15 -.278E-16   0.699E-13 0.705E-13 -.366E-13
 
 
 POSITION                                       TOTAL-FORCE (eV/Angst)
 -----------------------------------------------------------------------------------
      0.00000      0.94075      1.24865         0.000000     -0.334621     -0.225083
      0.00000      7.05925      1.24865         0.000000      0.334621     -0.225083
      0.00000      0.94075      6.75135         0.000000     -0.334621      0.225083
      0.00000      7.05925      6.75135         0.000000      0.334621      0.225083
      0.00000      0.00000      0.65553         0.000000      0.000000      2.003587
      0.00000      0.00000      7.34447         0.000000      0.000000     -2.003587
 -----------------------------------------------------------------------------------
    total drift:                                0.000000      0.000000      0.000000


--------------------------------------------------------------------------------------------------------



  FREE ENERGIE OF THE ION-ELECTRON SYSTEM (eV)
  ---------------------------------------------------
  free  energy   TOTEN  =       -31.824984 eV

  energy  without entropy=      -31.824984  energy(sigma->0) =      -31.824984
 
 d Force =-0.1962667E-01[-0.817E-01, 0.425E-01]  d Energy =-0.2036330E-01 0.737E-03
 d Force = 0.2874746E+01[ 0.269E+01, 0.306E+01]  d Ewald  = 0.2873913E+01 0.833E-03


--------------------------------------------------------------------------------------------------------


    POTLOK:  cpu time    0.59: real time    0.59


--------------------------------------------------------------------------------------------------------


 Steepest descent step on ions:
 trial-energy change:    0.020363  1 .order    0.019627   -0.042494    0.081747
  (g-gl).g = 0.425E-01      g.g   = 0.425E-01  gl.gl    = 0.000E+00
 g(Force)  = 0.425E-01   g(Stress)= 0.000E+00 ortho     = 0.000E+00
 gamma     =   0.00000
 trial     =   1.00000
 opt step  =   0.33411  (harmonic =   0.34203) maximal distance =0.00598722
 next E    =   -31.852418   (d E  =  -0.00707)


--------------------------------------------------------------------------------------------------------


    WAVPRE:  cpu time    0.12: real time    0.13
    FEWALD:  cpu time    0.00: real time    0.00
    ORTHCH:  cpu time    0.01: real time    0.01
     LOOP+:  cpu time    5.12: real time    5.22


----------------------------------------- Iteration    3(   1)  ---------------------------------------


    POTLOK:  cpu time    0.57: real time    0.58
    SETDIJ:  cpu time    0.02: real time    0.02
     EDDAV:  cpu time    0.28: real time    0.28
       DOS:  cpu time    0.00: real time    0.00
    CHARGE:  cpu time    0.08: real time    0.08
    MIXING:  cpu time    0.02: real time    0.02
    --------------------------------------------
      LOOP:  cpu time    0.97: real time    0.97

 eigenvalue-minimisations  :    22
 total energy-change (2. order) :-0.2848701E-01  (-0.8191976E-01)
 number of electron      12.0000006 magnetization 
 augmentation part        0.2502214 magnetization 

 Broyden mixing:
  rms(total) = 0.31572E-01    rms(broyden)= 0.31512E-01
  rms(prec ) = 0.41363E-01
  weight for this iteration     100.00

 Free energy of the ion-electron system (eV)
  ---------------------------------------------------
  alpha Z        PSCENC =         1.18323955
  Ewald energy   TEWEN  =       171.18515458
  -1/2 Hartree   DENC   =      -448.40071868
  -exchange  EXHF       =         0.00000000
  -V(xc)+E(xc)   XCENC  =        39.01878362
  PAW double counting   =       155.45991186     -158.00409434
  entropy T*S    EENTRO =         0.00000000
  eigenvalues    EBANDS =      -135.87861577
  atomic energy  EATOM  =       343.58290885
  ---------------------------------------------------
  free energy    TOTEN  =       -31.85343033 eV

  energy without entropy =      -31.85343033  energy(sigma->0) =      -31.85343033


--------------------------------------------------------------------------------------------------------




----------------------------------------- Iteration    3(   2)  ---------------------------------------


    POTLOK:  cpu time    0.58: real time    0.58
    SETDIJ:  cpu time    0.02: real time    0.02
     EDDAV:  cpu time    0.26: real time    0.26
       DOS:  cpu time    0.00: real time    0.00
    CHARGE:  cpu time    0.08: real time    0.08
    MIXING:  cpu time    0.02: real time    0.02
    --------------------------------------------
      LOOP:  cpu time    0.96: real time    0.96

 eigenvalue-minimisations  :    20
 total energy-change (2. order) : 0.3113456E-03  (-0.1547335E-02)
 number of electron      12.0000006 magnetization 
 augmentation part        0.2499335 magnetization 

 Broyden mixing:
  rms(total) = 0.20480E-01    rms(broyden)= 0.20469E-01
  rms(prec ) = 0.26318E-01
  weight for this iteration     100.00

 eigenvalues of (default mixing * dielectric matrix)
  average eigenvalue GAMMA=   2.4350
  2.4350

 Free energy of the ion-electron system (eV)
  ---------------------------------------------------
  alpha Z        PSCENC =         1.18323955
  Ewald energy   TEWEN  =       171.18515458
  -1/2 Hartree   DENC   =      -448.71921907
  -exchange  EXHF       =         0.00000000
  -V(xc)+E(xc)   XCENC  =        39.04281457
  PAW double counting   =       156.27224149     -158.82027316
  entropy T*S    EENTRO =         0.00000000
  eigenvalues    EBANDS =      -135.57998578
  atomic energy  EATOM  =       343.58290885
  ---------------------------------------------------
  free energy    TOTEN  =       -31.85311898 eV

  energy without entropy =      -31.85311898  energy(sigma->0) =      -31.85311898


--------------------------------------------------------------------------------------------------------




----------------------------------------- Iteration    3(   3)  ---------------------------------------


    POTLOK:  cpu time    0.60: real time    0.60
    SETDIJ:  cpu time    0.02: real time    0.02
     EDDAV:  cpu time    0.26: real time    0.26
       DOS:  cpu time    0.00: real time    0.00
    CHARGE:  cpu time    0.08: real time    0.08
    MIXING:  cpu time    0.02: real time    0.02
    --------------------------------------------
      LOOP:  cpu time    0.97: real time    0.99

 eigenvalue-minimisations  :    20
 total energy-change (2. order) : 0.6990401E-03  (-0.3481522E-03)
 number of electron      12.0000006 magnetization 
 augmentation part        0.2495601 magnetization 

 Broyden mixing:
  rms(total) = 0.33522E-02    rms(broyden)= 0.33447E-02
  rms(prec ) = 0.49934E-02
  weight for this iteration     100.00

 eigenvalues of (default mixing * dielectric matrix)
  average eigenvalue GAMMA=   1.5796
  1.0772  2.0820

 Free energy of the ion-electron system (eV)
  ---------------------------------------------------
  alpha Z        PSCENC =         1.18323955
  Ewald energy   TEWEN  =       171.18515458
  -1/2 Hartree   DENC   =      -449.10953002
  -exchange  EXHF       =         0.00000000
  -V(xc)+E(xc)   XCENC  =        39.07236747
  PAW double counting   =       157.32743203     -159.88018333
  entropy T*S    EENTRO =         0.00000000
  eigenvalues    EBANDS =      -135.21380907
  atomic energy  EATOM  =       343.58290885
  ---------------------------------------------------
  free energy    TOTEN  =       -31.85241994 eV

  energy without entropy =      -31.85241994  energy(sigma->0) =      -31.85241994


--------------------------------------------------------------------------------------------------------




----------------------------------------- Iteration    3(   4)  ---------------------------------------


    POTLOK:  cpu time    0.59: real time    0.59
    SETDIJ:  cpu time    0.02: real time    0.02
     EDDAV:  cpu time    0.26: real time    0.26
       DOS:  cpu time    0.00: real time    0.00
    --------------------------------------------
      LOOP:  cpu time    0.87: real time    0.89

 eigenvalue-minimisations  :    20
 total energy-change (2. order) : 0.1851590E-04  (-0.3874529E-04)
 number of electron      12.0000006 magnetization 
 augmentation part        0.2495601 magnetization 

 Free energy of the ion-electron system (eV)
  ---------------------------------------------------
  alpha Z        PSCENC =         1.18323955
  Ewald energy   TEWEN  =       171.18515458
  -1/2 Hartree   DENC   =      -449.02104798
  -exchange  EXHF       =         0.00000000
  -V(xc)+E(xc)   XCENC  =        39.06624325
  PAW double counting   =       157.13026467     -159.68157215
  entropy T*S    EENTRO =         0.00000000
  eigenvalues    EBANDS =      -135.29759220
  atomic energy  EATOM  =       343.58290885
  ---------------------------------------------------
  free energy    TOTEN  =       -31.85240142 eV

  energy without entropy =      -31.85240142  energy(sigma->0) =      -31.85240142


--------------------------------------------------------------------------------------------------------




 average (electrostatic) potential at core
  the test charge radii are     0.5201  0.6991
  (the norm of the test charge is              1.0000)
       1 -41.5631       2 -41.5631       3 -41.5631       4 -41.5631       5 -58.5220
       6 -58.5220
 
 
 
 E-fermi :  -5.4169     XC(G=0):  -1.6583     alpha+bet : -0.6079


 k-point   1 :       0.0000    0.0000    0.0000
  band No.  band energies     occupation 
      1     -18.5078      2.00000
      2     -13.8432      2.00000
      3     -11.0423      2.00000
      4      -9.8103      2.00000
      5      -8.0371      2.00000
      6      -6.4080      2.00000
      7      -0.6153      0.00000
      8      -0.5176      0.00000
      9       1.2597      0.00000
     10       1.3197      0.00000


--------------------------------------------------------------------------------------------------------


 soft charge-density along one line, spin component           1
         0         1         2         3         4         5         6         7         8         9
 total charge-density along one line
 
 pseudopotential strength for first ion, spin component:           1
 -2.343  -0.011   0.001   0.001   0.000
 -0.011   0.049   0.002   0.001   0.000
  0.001   0.002  -0.334   0.002   0.000
  0.001   0.001   0.002  -0.336   0.000
  0.000   0.000   0.000   0.000  -0.338
 total augmentation occupancy for first ion, spin component:           1
  1.714  -0.741  -0.239  -0.148   0.000
 -0.741   0.363   0.114   0.069   0.000
 -0.239   0.114   0.038   0.019   0.000
 -0.148   0.069   0.019   0.019   0.000
  0.000   0.000   0.000   0.000   0.009


------------------------ aborting loop because EDIFF is reached ----------------------------------------


    CHARGE:  cpu time    0.08: real time    0.08
    FORLOC:  cpu time    0.07: real time    0.07
    FORNL :  cpu time    0.05: real time    0.05
    STRESS:  cpu time    0.17: real time    0.17
    FORHAR:  cpu time    0.20: real time    0.20
    MIXING:  cpu time    0.02: real time    0.02

  FORCE on cell =-STRESS in cart. coord.  units (eV):
  Direction    XX          YY          ZZ          XY          YZ          ZX
  --------------------------------------------------------------------------------------
  Alpha Z     1.18324     1.18324     1.18324
  Ewald    -126.55350    70.80935   226.92916     0.00000     0.00000     0.00000
  Hartree    70.88684   141.11907   237.00095     0.00000     0.00000     0.00000
  E(xc)     -41.97571   -40.92012   -40.75040     0.00000     0.00000     0.00000
  Local     -64.96916  -310.51226  -561.78094     0.00000     0.00000     0.00000
  n-local   -16.92374   -18.92506   -18.56963     0.00000     0.00000     0.00000
  augment    -0.10729    -0.21558    -0.20804     0.00000     0.00000     0.00000
  Kinetic   175.64790   154.44663   153.77106     0.00000     0.00000     0.00000
  Fock        0.00000     0.00000     0.00000     0.00000     0.00000     0.00000
  -------------------------------------------------------------------------------------
  Total      -2.81143    -3.01473    -2.42459     0.00000     0.00000     0.00000
  in kB      -8.79767    -9.43385    -7.58715     0.00000     0.00000     0.00000
  external pressure =       -8.61 kB  Pullay stress =        0.00 kB


 VOLUME and BASIS-vectors are now :
 -----------------------------------------------------------------------------
  energy-cutoff  :      300.00
  volume of cell :      512.00
      direct lattice vectors                 reciprocal lattice vectors
     8.000000000  0.000000000  0.000000000     0.125000000  0.000000000  0.000000000
     0.000000000  8.000000000  0.000000000     0.000000000  0.125000000  0.000000000
     0.000000000  0.000000000  8.000000000     0.000000000  0.000000000  0.125000000

  length of vectors
     8.000000000  8.000000000  8.000000000     0.125000000  0.125000000  0.125000000


 FORCES acting on ions
    electron-ion (+dipol)            ewald-force                    non-local-force                 convergence-correction
 -----------------------------------------------------------------------------------------------
   0.704E-15 -.455E+02 -.356E+02   0.808E-17 0.504E+02 0.386E+02   0.000E+00 -.473E+01 -.293E+01   0.328E-14 -.116E-02 0.816E-03
   0.740E-15 0.455E+02 -.356E+02   0.111E-16 -.504E+02 0.386E+02   0.000E+00 0.473E+01 -.293E+01   0.388E-14 0.116E-02 0.816E-03
   0.177E-14 -.455E+02 0.356E+02   0.170E-16 0.504E+02 -.386E+02   0.000E+00 -.473E+01 0.293E+01   0.681E-14 -.116E-02 -.816E-03
   -.116E-14 0.455E+02 0.356E+02   -.104E-16 -.504E+02 -.386E+02   0.000E+00 0.473E+01 0.293E+01   0.716E-14 0.116E-02 -.816E-03
[...]
  --------------------------------------------------------------------------------------
  Alpha Z     1.18324     1.18324     1.18324
  Ewald    -126.63725    71.11337   220.15735     0.00000     0.00000     0.00000
  Hartree    68.92263   139.50093   234.68409     0.00000     0.00000     0.00000
  E(xc)     -41.72619   -40.66193   -40.52353     0.00000     0.00000     0.00000
  Local     -62.21640  -309.00674  -554.20065     0.00000     0.00000     0.00000
  n-local   -16.57137   -18.50341   -18.12298     0.00000     0.00000     0.00000
  augment    -0.09629    -0.19488    -0.17505     0.00000     0.00000     0.00000
  Kinetic   174.37203   152.47997   152.49676     0.00000     0.00000     0.00000
  Fock        0.00000     0.00000     0.00000     0.00000     0.00000     0.00000
  -------------------------------------------------------------------------------------
  Total      -2.76960    -4.08945    -4.50078     0.00000     0.00000     0.00000
  in kB      -8.66679   -12.79694   -14.08407     0.00000     0.00000     0.00000
  external pressure =      -11.85 kB  Pullay stress =        0.00 kB


 VOLUME and BASIS-vectors are now :
 -----------------------------------------------------------------------------
  energy-cutoff  :      300.00
  volume of cell :      512.00
      direct lattice vectors                 reciprocal lattice vectors
     8.000000000  0.000000000  0.000000000     0.125000000  0.000000000  0.000000000
     0.000000000  8.000000000  0.000000000     0.000000000  0.125000000  0.000000000
     0.000000000  0.000000000  8.000000000     0.000000000  0.000000000  0.125000000

  length of vectors
     8.000000000  8.000000000  8.000000000     0.125000000  0.125000000  0.125000000


 FORCES acting on ions
    electron-ion (+dipol)            ewald-force                    non-local-force                 convergence-correction
 -----------------------------------------------------------------------------------------------
   -.117E-14 -.452E+02 -.346E+02   0.147E-17 0.496E+02 0.374E+02   0.000E+00 -.465E+01 -.280E+01   0.462E-14 0.232E-02 0.344E-02
   -.546E-15 0.452E+02 -.346E+02   -.246E-16 -.496E+02 0.374E+02   0.000E+00 0.465E+01 -.280E+01   0.527E-14 -.232E-02 0.344E-02
   0.105E-14 -.452E+02 0.346E+02   -.110E-16 0.496E+02 -.374E+02   0.000E+00 -.465E+01 0.280E+01   0.828E-14 0.232E-02 -.344E-02
   -.729E-15 0.452E+02 0.346E+02   -.194E-16 -.496E+02 -.374E+02   0.000E+00 0.465E+01 0.280E+01   0.852E-14 -.232E-02 -.344E-02
   0.929E-15 -.458E-14 -.949E+02   -.120E-17 0.667E-14 0.950E+02   -.808E-27 0.000E+00 -.781E+00   0.321E-13 0.331E-13 0.200E-01
   -.176E-15 -.202E-14 0.949E+02   0.253E-16 -.136E-14 -.950E+02   0.000E+00 0.000E+00 0.781E+00   0.450E-13 0.338E-13 -.200E-01
 -----------------------------------------------------------------------------------------------
   -.646E-15 0.171E-12 -.142E-13   -.294E-16 -.179E-14 -.284E-13   -.808E-27 -.888E-15 0.000E+00   0.104E-12 0.780E-13 -.169E-13
 
 
 POSITION                                       TOTAL-FORCE (eV/Angst)
 -----------------------------------------------------------------------------------
      0.00000      0.94287      1.24970         0.000000     -0.181036     -0.062868
      0.00000      7.05713      1.24970         0.000000      0.181036     -0.062868
      0.00000      0.94287      6.75030         0.000000     -0.181036      0.062868
      0.00000      7.05713      6.75030         0.000000      0.181036      0.062868
      0.00000      0.00000      0.67625         0.000000      0.000000     -0.654846
      0.00000      0.00000      7.32375         0.000000      0.000000      0.654846
 -----------------------------------------------------------------------------------
    total drift:                                0.000000      0.000000      0.000000


--------------------------------------------------------------------------------------------------------



  FREE ENERGIE OF THE ION-ELECTRON SYSTEM (eV)
  ---------------------------------------------------
  free  energy   TOTEN  =       -31.848508 eV

  energy  without entropy=      -31.848508  energy(sigma->0) =      -31.848508
 
 d Force =-0.3393580E-02[-0.290E-01, 0.222E-01]  d Energy =-0.3893637E-02 0.500E-03
 d Force = 0.6552182E+01[ 0.646E+01, 0.664E+01]  d Ewald  = 0.6551542E+01 0.640E-03


--------------------------------------------------------------------------------------------------------


    POTLOK:  cpu time    0.58: real time    0.58


--------------------------------------------------------------------------------------------------------


 Conjugate gradient step on ions:
 trial-energy change:    0.003894  1 .order    0.003394   -0.022200    0.028987
  (g-gl).g = 0.281E-01      g.g   = 0.282E-01  gl.gl    = 0.425E-01
 g(Force)  = 0.282E-01   g(Stress)= 0.000E+00 ortho     = 0.121E-03
 gamma     =   0.66109
 trial     =   0.78465
 opt step  =   0.32911  (harmonic =   0.34031) maximal distance =0.00589495
 next E    =   -31.857020   (d E  =  -0.00462)


--------------------------------------------------------------------------------------------------------


    WAVPRE:  cpu time    0.12: real time    0.12
    FEWALD:  cpu time    0.00: real time    0.00
    ORTHCH:  cpu time    0.01: real time    0.01
     LOOP+:  cpu time    6.07: real time    6.15


----------------------------------------- Iteration    5(   1)  ---------------------------------------


    POTLOK:  cpu time    0.57: real time    0.57
    SETDIJ:  cpu time    0.02: real time    0.02
     EDDAV:  cpu time    0.26: real time    0.26
       DOS:  cpu time    0.00: real time    0.00
    CHARGE:  cpu time    0.08: real time    0.08
    MIXING:  cpu time    0.02: real time    0.02
    --------------------------------------------
      LOOP:  cpu time    0.94: real time    0.94

 eigenvalue-minimisations  :    20
 total energy-change (2. order) :-0.1014067E-01  (-0.4093009E-01)
 number of electron      12.0000020 magnetization 
 augmentation part        0.2476327 magnetization 

 Broyden mixing:
  rms(total) = 0.22211E-01    rms(broyden)= 0.22192E-01
  rms(prec ) = 0.33612E-01
  weight for this iteration     100.00

 Free energy of the ion-electron system (eV)
  ---------------------------------------------------
  alpha Z        PSCENC =         1.18323955
  Ewald energy   TEWEN  =       168.41544818
  -1/2 Hartree   DENC   =      -445.63021782
  -exchange  EXHF       =         0.00000000
  -V(xc)+E(xc)   XCENC  =        38.92171679
  PAW double counting   =       151.99508505     -154.52544970
  entropy T*S    EENTRO =         0.00000000
  eigenvalues    EBANDS =      -135.80135569
  atomic energy  EATOM  =       343.58290885
  ---------------------------------------------------
  free energy    TOTEN  =       -31.85862479 eV

  energy without entropy =      -31.85862479  energy(sigma->0) =      -31.85862479


--------------------------------------------------------------------------------------------------------




----------------------------------------- Iteration    5(   2)  ---------------------------------------


    POTLOK:  cpu time    0.57: real time    0.58
    SETDIJ:  cpu time    0.02: real time    0.02
     EDDAV:  cpu time    0.26: real time    0.26
       DOS:  cpu time    0.00: real time    0.00
    CHARGE:  cpu time    0.08: real time    0.08
    MIXING:  cpu time    0.02: real time    0.02
    --------------------------------------------
      LOOP:  cpu time    0.95: real time    0.96

 eigenvalue-minimisations  :    20
 total energy-change (2. order) : 0.1345499E-02  (-0.5045808E-03)
 number of electron      12.0000020 magnetization 
 augmentation part        0.2476428 magnetization 

 Broyden mixing:
  rms(total) = 0.11889E-01    rms(broyden)= 0.11885E-01
  rms(prec ) = 0.17342E-01
  weight for this iteration     100.00

 eigenvalues of (default mixing * dielectric matrix)
  average eigenvalue GAMMA=   2.0460
  2.0460

 Free energy of the ion-electron system (eV)
  ---------------------------------------------------
  alpha Z        PSCENC =         1.18323955
  Ewald energy   TEWEN  =       168.41544818
  -1/2 Hartree   DENC   =      -446.15570350
  -exchange  EXHF       =         0.00000000
  -V(xc)+E(xc)   XCENC  =        38.94779955
  PAW double counting   =       153.45786259     -155.99492866
  entropy T*S    EENTRO =         0.00000000
  eigenvalues    EBANDS =      -135.29390586
  atomic energy  EATOM  =       343.58290885
  ---------------------------------------------------
  free energy    TOTEN  =       -31.85727929 eV

  energy without entropy =      -31.85727929  energy(sigma->0) =      -31.85727929


--------------------------------------------------------------------------------------------------------




----------------------------------------- Iteration    5(   3)  ---------------------------------------


    POTLOK:  cpu time    0.59: real time    0.59
    SETDIJ:  cpu time    0.02: real time    0.02
     EDDAV:  cpu time    0.26: real time    0.26
       DOS:  cpu time    0.00: real time    0.00
    CHARGE:  cpu time    0.08: real time    0.08
    MIXING:  cpu time    0.02: real time    0.02
    --------------------------------------------
      LOOP:  cpu time    0.97: real time    0.98

 eigenvalue-minimisations  :    20
 total energy-change (2. order) : 0.2008441E-03  (-0.4938381E-03)
 number of electron      12.0000020 magnetization 
 augmentation part        0.2469325 magnetization 

 Broyden mixing:
  rms(total) = 0.49724E-02    rms(broyden)= 0.49613E-02
  rms(prec ) = 0.82463E-02
  weight for this iteration     100.00

 eigenvalues of (default mixing * dielectric matrix)
  average eigenvalue GAMMA=   1.2134
  1.7262  0.7007

 Free energy of the ion-electron system (eV)
  ---------------------------------------------------
  alpha Z        PSCENC =         1.18323955
  Ewald energy   TEWEN  =       168.41544818
  -1/2 Hartree   DENC   =      -446.66775366
  -exchange  EXHF       =         0.00000000
  -V(xc)+E(xc)   XCENC  =        38.97328835
  PAW double counting   =       154.96895127     -157.51341852
  entropy T*S    EENTRO =         0.00000000
  eigenvalues    EBANDS =      -134.79974247
  atomic energy  EATOM  =       343.58290885
  ---------------------------------------------------
  free energy    TOTEN  =       -31.85707845 eV

  energy without entropy =      -31.85707845  energy(sigma->0) =      -31.85707845


--------------------------------------------------------------------------------------------------------




----------------------------------------- Iteration    5(   4)  ---------------------------------------


    POTLOK:  cpu time    0.59: real time    0.59
    SETDIJ:  cpu time    0.01: real time    0.02
     EDDAV:  cpu time    0.29: real time    0.29
       DOS:  cpu time    0.00: real time    0.00
    --------------------------------------------
      LOOP:  cpu time    0.90: real time    0.91

 eigenvalue-minimisations  :    24
 total energy-change (2. order) : 0.9635678E-04  (-0.4092762E-04)
 number of electron      12.0000020 magnetization 
 augmentation part        0.2469325 magnetization 

 Free energy of the ion-electron system (eV)
  ---------------------------------------------------
  alpha Z        PSCENC =         1.18323955
  Ewald energy   TEWEN  =       168.41544818
  -1/2 Hartree   DENC   =      -446.53028670
  -exchange  EXHF       =         0.00000000
  -V(xc)+E(xc)   XCENC  =        38.96705927
  PAW double counting   =       154.72232054     -157.26486705
  entropy T*S    EENTRO =         0.00000000
  eigenvalues    EBANDS =      -134.93280473
  atomic energy  EATOM  =       343.58290885
  ---------------------------------------------------
  free energy    TOTEN  =       -31.85698209 eV

  energy without entropy =      -31.85698209  energy(sigma->0) =      -31.85698209


--------------------------------------------------------------------------------------------------------




 average (electrostatic) potential at core
  the test charge radii are     0.5201  0.6991
  (the norm of the test charge is              1.0000)
       1 -41.5499       2 -41.5499       3 -41.5499       4 -41.5499       5 -58.5463
       6 -58.5463
 
 
 
 E-fermi :  -5.4007     XC(G=0):  -1.6707     alpha+bet : -0.6079


 k-point   1 :       0.0000    0.0000    0.0000
  band No.  band energies     occupation 
      1     -18.4390      2.00000
      2     -13.8273      2.00000
      3     -11.0132      2.00000
      4      -9.7539      2.00000
      5      -8.0686      2.00000
      6      -6.3644      2.00000
      7      -0.6678      0.00000
      8      -0.5296      0.00000
      9       1.2526      0.00000
     10       1.3054      0.00000


--------------------------------------------------------------------------------------------------------


 soft charge-density along one line, spin component           1
         0         1         2         3         4         5         6         7         8         9
 total charge-density along one line
 
 pseudopotential strength for first ion, spin component:           1
 -2.343  -0.011   0.001   0.001   0.000
 -0.011   0.049   0.002   0.001   0.000
  0.001   0.002  -0.334   0.002   0.000
  0.001   0.001   0.002  -0.336   0.000
  0.000   0.000   0.000   0.000  -0.338
 total augmentation occupancy for first ion, spin component:           1
  1.705  -0.738  -0.237  -0.144   0.000
 -0.738   0.362   0.113   0.068   0.000
 -0.237   0.113   0.037   0.019   0.000
 -0.144   0.068   0.019   0.018   0.000
  0.000   0.000   0.000   0.000   0.009


------------------------ aborting loop because EDIFF is reached ----------------------------------------


    CHARGE:  cpu time    0.08: real time    0.08
    FORLOC:  cpu time    0.06: real time    0.07
    FORNL :  cpu time    0.05: real time    0.05
    STRESS:  cpu time    0.17: real time    0.18
    FORHAR:  cpu time    0.20: real time    0.20
    MIXING:  cpu time    0.02: real time    0.02

  FORCE on cell =-STRESS in cart. coord.  units (eV):
  Direction    XX          YY          ZZ          XY          YZ          ZX
  --------------------------------------------------------------------------------------
  Alpha Z     1.18324     1.18324     1.18324
  Ewald    -126.58856    70.94546   224.05841     0.00000     0.00000     0.00000
  Hartree    70.03054   140.41689   235.98310     0.00000     0.00000     0.00000
  E(xc)     -41.87060   -40.81186   -40.65460     0.00000     0.00000     0.00000
  Local     -63.78586  -309.86976  -558.53856     0.00000     0.00000     0.00000
  n-local   -16.77444   -18.74358   -18.37941     0.00000     0.00000     0.00000
  augment    -0.10220    -0.20649    -0.19347     0.00000     0.00000     0.00000
  Kinetic   175.08426   153.57351   153.20786     0.00000     0.00000     0.00000
  Fock        0.00000     0.00000     0.00000     0.00000     0.00000     0.00000
  -------------------------------------------------------------------------------------
  Total      -2.82363    -3.51259    -3.33342     0.00000     0.00000     0.00000
  in kB      -8.83585   -10.99177   -10.43111     0.00000     0.00000     0.00000
  external pressure =      -10.09 kB  Pullay stress =        0.00 kB


 VOLUME and BASIS-vectors are now :
 -----------------------------------------------------------------------------
  energy-cutoff  :      300.00
  volume of cell :      512.00
      direct lattice vectors                 reciprocal lattice vectors
     8.000000000  0.000000000  0.000000000     0.125000000  0.000000000  0.000000000
     0.000000000  8.000000000  0.000000000     0.000000000  0.125000000  0.000000000
     0.000000000  0.000000000  8.000000000     0.000000000  0.000000000  0.125000000

  length of vectors
     8.000000000  8.000000000  8.000000000     0.125000000  0.125000000  0.125000000


 FORCES acting on ions
    electron-ion (+dipol)            ewald-force                    non-local-force                 convergence-correction
 -----------------------------------------------------------------------------------------------
   0.157E-15 -.454E+02 -.352E+02   -.233E-16 0.501E+02 0.380E+02   0.202E-27 -.470E+01 -.288E+01   0.467E-14 -.561E-02 -.452E-02
   0.661E-15 0.454E+02 -.352E+02   -.123E-16 -.501E+02 0.380E+02   0.000E+00 0.470E+01 -.288E+01   0.530E-14 0.561E-02 -.452E-02
   0.775E-15 -.454E+02 0.352E+02   0.325E-16 0.501E+02 -.380E+02   0.000E+00 -.470E+01 0.288E+01   0.797E-14 -.561E-02 0.452E-02
   0.459E-15 0.454E+02 0.352E+02   0.245E-16 -.501E+02 -.380E+02   -.202E-27 0.470E+01 0.288E+01   0.850E-14 0.561E-02 0.452E-02
   -.415E-15 0.108E-14 -.967E+02   -.931E-16 -.232E-14 0.972E+02   0.000E+00 0.000E+00 -.517E+00   0.311E-13 0.340E-13 -.246E-01
   -.162E-14 0.867E-15 0.967E+02   0.423E-16 -.318E-14 -.972E+02   0.202E-27 0.000E+00 0.517E+00   0.449E-13 0.424E-13 0.246E-01
 -----------------------------------------------------------------------------------------------
   0.139E-16 0.123E-12 0.171E-12   -.294E-16 -.550E-14 0.000E+00   0.202E-27 -.888E-15 0.444E-15   0.102E-12 0.891E-13 -.406E-13
 
 
 POSITION                                       TOTAL-FORCE (eV/Angst)
 -----------------------------------------------------------------------------------
      0.00000      0.93471      1.24485         0.000000     -0.001936      0.015880
      0.00000      7.06529      1.24485         0.000000      0.001936      0.015880
      0.00000      0.93471      6.75515         0.000000     -0.001936     -0.015880
      0.00000      7.06529      6.75515         0.000000      0.001936     -0.015880
      0.00000      0.00000      0.66884         0.000000      0.000000      0.003007
      0.00000      0.00000      7.33116         0.000000      0.000000     -0.003007
 -----------------------------------------------------------------------------------
    total drift:                                0.000000      0.000000      0.000000


--------------------------------------------------------------------------------------------------------



  FREE ENERGIE OF THE ION-ELECTRON SYSTEM (eV)
  ---------------------------------------------------
  free  energy   TOTEN  =       -31.856982 eV

  energy  without entropy=      -31.856982  energy(sigma->0) =      -31.856982
 
 d Force = 0.8269958E-02[-0.289E-03, 0.168E-01]  d Energy = 0.8474305E-02-0.204E-03
 d Force =-0.3781959E+01[-0.381E+01,-0.375E+01]  d Ewald  =-0.3781836E+01-0.123E-03


--------------------------------------------------------------------------------------------------------


    POTLOK:  cpu time    0.61: real time    0.61


--------------------------------------------------------------------------------------------------------




--------------------------------------------------------------------------------------------------------


  
 reached required accuracy - stopping structural energy minimisation
 writing wavefunctions
     LOOP+:  cpu time    4.98: real time    5.13
    4ORBIT:  cpu time    0.00: real time    0.00

 total amount of memory used by VASP on root node    68601. kBytes
========================================================================

   base      :      30000. kBytes
   nonl-proj :       1350. kBytes
   fftplans  :      13060. kBytes
   grid      :      23203. kBytes
   one-center:         18. kBytes
   wavefun   :        970. kBytes
 
  
  
 General timing and accounting informations for this job:
 ========================================================
  
                  Total CPU time used (sec):       38.651
                            User time (sec):       38.178
                          System time (sec):        0.473
                         Elapsed time (sec):       39.449
  
                   Maximum memory used (kb):           0.
                   Average memory used (kb):           0.
  
                          Minor page faults:       129335
                          Major page faults:            0
                 Voluntary context switches:         2206
