<?xml version="1.0" encoding="ISO-8859-1"?>
<modeling>
 <generator>
  <i name="program" type="string">vasp </i>
  <i name="version" type="string">5.2.12  </i>
  <i name="subversion" type="string">11Nov11 complex                                                      parallel </i>
  <i name="platform" type="string">LinuxIFC </i>
  <i name="date" type="string">2012 11 03 </i>
  <i name="time" type="string">01:30:19 </i>
 </generator>
 <incar>
  <i type="string" name="PREC">normal</i>
  <i type="int" name="IBRION">     2</i>
  <i type="int" name="NSW">    10</i>
  <i name="ENCUT">    300.00000000</i>
  <i type="int" name="ISMEAR">     0</i>
 </incar>
 <kpoints>
  <generation param="Monkhorst-Pack">
   <v type="int" name="divisions">       1        1        1 </v>
   <v name="usershift">      0.00000000       0.00000000       0.00000000 </v>
   <v name="genvec1">      1.00000000       0.00000000       0.00000000 </v>
   <v name="genvec2">      0.00000000       1.00000000       0.00000000 </v>
   <v name="genvec3">      0.00000000       0.00000000       1.00000000 </v>
   <v name="shift">      0.00000000       0.00000000       0.00000000 </v>
  </generation>
  <varray name="kpointlist" >
   <v>       0.00000000       0.00000000       0.00000000 </v>
  </varray>
  <varray name="weights" >
   <v>       1.00000000 </v>
  </varray>
 </kpoints>
 <parameters>
  <separator name="general" >
   <i type="string" name="SYSTEM">unknown system</i>
   <i type="logical" name="LCOMPAT"> F  </i>
  </separator>
  <separator name="electronic" >
   <i type="string" name="PREC">normal</i>
   <i name="ENMAX">    300.00000000</i>
   <i name="ENAUG">    644.87300000</i>
   <i name="EDIFF">      0.00010000</i>
   <i type="int" name="IALGO">    38</i>
   <i type="int" name="IWAVPR">    11</i>
   <i type="int" name="NBANDS">    10</i>
   <i name="NELECT">     12.00000000</i>
   <i type="int" name="TURBO">     0</i>
   <i type="int" name="IRESTART">     0</i>
   <i type="int" name="NREBOOT">     0</i>
   <i type="int" name="NMIN">     0</i>
   <i name="EREF">      0.00000000</i>
   <separator name="electronic smearing" >
    <i type="int" name="ISMEAR">     0</i>
    <i name="SIGMA">      0.20000000</i>
    <i name="KSPACING">      0.50000000</i>
    <i type="logical" name="KGAMMA"> T  </i>
   </separator>
   <separator name="electronic projectors" >
    <i type="logical" name="LREAL"> F  </i>
    <v name="ROPT">      0.00000000      0.00000000</v>
    <i type="int" name="LMAXPAW">  -100</i>
    <i type="int" name="LMAXMIX">     2</i>
    <i type="logical" name="NLSPLINE"> F  </i>
   </separator>
   <separator name="electronic startup" >
    <i type="int" name="ISTART">     0</i>
    <i type="int" name="ICHARG">     2</i>
    <i type="int" name="INIWAV">     1</i>
   </separator>
   <separator name="electronic spin" >
    <i type="int" name="ISPIN">     1</i>
    <i type="logical" name="LNONCOLLINEAR"> F  </i>
    <v name="MAGMOM">      1.00000000      1.00000000      1.00000000      1.00000000      1.00000000      1.00000000</v>
    <i name="NUPDOWN">     -1.00000000</i>
    <i type="logical" name="LSORBIT"> F  </i>
    <v name="SAXIS">      0.00000000      0.00000000      1.00000000</v>
    <i type="logical" name="LSPIRAL"> F  </i>
    <v name="QSPIRAL">      0.00000000      0.00000000      0.00000000</v>
    <i type="logical" name="LZEROZ"> F  </i>
   </separator>
   <separator name="electronic exchange-correlation" >
    <i type="logical" name="LASPH"> F  </i>
    <i type="logical" name="LMETAGGA"> F  </i>
   </separator>
   <separator name="electronic convergence" >
    <i type="int" name="NELM">    60</i>
    <i type="int" name="NELMDL">    -5</i>
    <i type="int" name="NELMIN">     2</i>
    <i name="ENINI">    300.00000000</i>
    <separator name="electronic convergence detail" >
     <i type="logical" name="LDIAG"> T  </i>
     <i type="logical" name="LSUBROT"> T  </i>
     <i name="WEIMIN">      0.00100000</i>
     <i name="EBREAK">      0.00000250</i>
     <i name="DEPER">      0.30000000</i>
     <i type="int" name="NRMM">     4</i>
     <i name="TIME">      0.40000000</i>
    </separator>
   </separator>
   <separator name="electronic mixer" >
    <i name="AMIX">      0.40000000</i>
    <i name="BMIX">      1.00000000</i>
    <i name="AMIN">      0.10000000</i>
    <i name="AMIX_MAG">      1.60000000</i>
    <i name="BMIX_MAG">      1.00000000</i>
    <separator name="electronic mixer details" >
     <i type="int" name="IMIX">     4</i>
     <i type="int" name="MAXMIX">   -45</i>
     <i name="WC">    100.00000000</i>
     <i type="int" name="INIMIX">     1</i>
     <i type="int" name="MIXPRE">     1</i>
     <i type="int" name="MREMOVE">     5</i>
    </separator>
   </separator>
   <separator name="electronic dipolcorrection" >
    <i type="logical" name="LDIPOL"> F  </i>
    <i type="logical" name="LMONO"> F  </i>
    <i type="int" name="IDIPOL">     0</i>
    <i name="EPSILON">      1.00000000</i>
    <v name="DIPOL">   -100.00000000   -100.00000000   -100.00000000</v>
    <i name="EFIELD">      0.00000000</i>
   </separator>
  </separator>
  <separator name="grids" >
   <i type="int" name="NGX">    36</i>
   <i type="int" name="NGY">    36</i>
   <i type="int" name="NGZ">    36</i>
   <i type="int" name="NGXF">    72</i>
   <i type="int" name="NGYF">    72</i>
   <i type="int" name="NGZF">    72</i>
   <i type="logical" name="ADDGRID"> F  </i>
  </separator>
  <separator name="ionic" >
   <i type="int" name="NSW">    10</i>
   <i type="int" name="IBRION">     2</i>
   <i type="int" name="ISIF">     2</i>
   <i name="PSTRESS">      0.00000000</i>
   <i name="EDIFFG">      0.00100000</i>
   <i type="int" name="NFREE">     1</i>
   <i name="POTIM">      0.50000000</i>
   <i name="SMASS">     -3.00000000</i>
   <i name="SCALEE">      1.00000000</i>
  </separator>
  <separator name="ionic md" >
   <i name="TEBEG">      0.00010000</i>
   <i name="TEEND">      0.00010000</i>
   <i type="int" name="NBLOCK">     1</i>
   <i type="int" name="KBLOCK">    10</i>
   <i type="int" name="NPACO">   256</i>
   <i name="APACO">     16.00000000</i>
  </separator>
  <separator name="symmetry" >
   <i type="int" name="ISYM">     2</i>
   <i name="SYMPREC">      0.00001000</i>
  </separator>
  <separator name="dos" >
   <i type="logical" name="LORBIT"> F  </i>
   <v name="RWIGS">     -1.00000000     -1.00000000</v>
   <i type="int" name="NEDOS">   301</i>
   <i name="EMIN">     10.00000000</i>
   <i name="EMAX">    -10.00000000</i>
   <i name="EFERMI">      0.00000000</i>
  </separator>
  <separator name="writing" >
   <i type="int" name="NWRITE">     2</i>
   <i type="logical" name="LWAVE"> T  </i>
   <i type="logical" name="LCHARG"> T  </i>
   <i type="logical" name="LPARD"> F  </i>
   <i type="logical" name="LVTOT"> F  </i>
   <i type="logical" name="LVHAR"> F  </i>
   <i type="logical" name="LELF"> F  </i>
   <i type="logical" name="LOPTICS"> F  </i>
   <v name="STM">      0.00000000      0.00000000      0.00000000      0.00000000      0.00000000      0.00000000      0.00000000</v>
  </separator>
  <separator name="performance" >
   <i type="int" name="NPAR">     1</i>
   <i type="int" name="NSIM">     4</i>
   <i type="int" name="NBLK">    -1</i>
   <i type="logical" name="LPLANE"> T  </i>
   <i type="logical" name="LSCALAPACK"> F  </i>
   <i type="logical" name="LSCAAWARE"> F  </i>
   <i type="logical" name="LSCALU"> F  </i>
   <i type="logical" name="LASYNC"> F  </i>
   <i type="logical" name="LORBITALREAL"> F  </i>
  </separator>
  <separator name="miscellaneous" >
   <i type="int" name="IDIOT">     3</i>
   <i type="logical" name="LMUSIC"> F  </i>
   <v name="POMASS">      1.00000000     12.01100000</v>
   <v name="DARWINR">      0.00000000      0.00000000</v>
   <v name="DARWINV">      1.00000000      1.00000000</v>
   <i type="logical" name="LCORR"> T  </i>
  </separator>
  <i type="logical" name="GGA_COMPAT"> T  </i>
  <i type="logical" name="LBERRY"> F  </i>
  <i type="int" name="ICORELEVEL">     0</i>
  <i type="logical" name="LDAU"> F  </i>
  <i type="int" name="I_CONSTRAINED_M">     0</i>
  <separator name="electronic exchange-correlation" >
   <i type="string" name="GGA">--</i>
   <i type="int" name="VOSKOWN">     0</i>
   <i type="logical" name="LHFCALC"> F  </i>
   <i type="string" name="PRECFOCK"></i>
   <i type="logical" name="LHFONE"> F  </i>
   <i type="logical" name="LRHFCALC"> F  </i>
   <i type="logical" name="LTHOMAS"> F  </i>
   <i type="logical" name="LMODELHF"> F  </i>
   <i name="ENCUT4O">     -1.00000000</i>
   <i type="int" name="EXXOEP">     0</i>
   <i type="int" name="FOURORBIT">     0</i>
   <i name="AEXX">      0.00000000</i>
   <i name="HFALPHA">      0.00000000</i>
   <i name="ALDAX">      1.00000000</i>
   <i name="AGGAX">      1.00000000</i>
   <i name="ALDAC">      1.00000000</i>
   <i name="AGGAC">      1.00000000</i>
   <i type="int" name="NKREDX">     1</i>
   <i type="int" name="NKREDY">     1</i>
   <i type="int" name="NKREDZ">     1</i>
   <i type="logical" name="SHIFTRED"> F  </i>
   <i type="logical" name="ODDONLY"> F  </i>
   <i type="logical" name="EVENONLY"> F  </i>
   <i type="int" name="LMAXFOCK">     0</i>
   <i type="int" name="NMAXFOCKAE">     0</i>
   <i type="logical" name="LFOCKAEDFT"> F  </i>
   <i name="HFSCREEN">      0.00000000</i>
   <i name="HFSCREENC">      0.00000000</i>
  </separator>
  <separator name="vdW DFT" >
   <i type="logical" name="LUSE_VDW"> F  </i>
   <i name="Zab_VDW">     -0.84910000</i>
   <i name="PARAM1">      0.12340000</i>
   <i name="PARAM2">      1.00000000</i>
   <i name="PARAM3">      0.00000000</i>
  </separator>
  <separator name="model GW" >
   <i type="int" name="MODEL_GW">     0</i>
   <i name="MODEL_EPS0">     51.20000000</i>
   <i name="MODEL_ALPHA">      1.00000000</i>
  </separator>
  <separator name="linear response parameters" >
   <i type="logical" name="LEPSILON"> F  </i>
   <i type="logical" name="LRPA"> F  </i>
   <i type="logical" name="LNABLA"> F  </i>
   <i type="logical" name="LVEL"> F  </i>
   <i type="int" name="KINTER">     0</i>
   <i name="CSHIFT">      0.10000000</i>
   <i name="OMEGAMAX">     -1.00000000</i>
  </separator>
  <separator name="orbital magnetization" >
   <i type="logical" name="NUCIND"> F  </i>
   <v name="MAGPOS">      0.00000000      0.00000000      0.00000000</v>
   <i type="logical" name="LNICSALL"> T  </i>
   <i type="logical" name="ORBITALMAG"> F  </i>
   <i type="logical" name="LMAGBLOCH"> F  </i>
   <i type="logical" name="LCHIMAG"> F  </i>
   <i type="logical" name="LGAUGE"> T  </i>
   <i type="int" name="MAGATOM">     0</i>
   <v name="MAGDIPOL">      0.00000000      0.00000000      0.00000000</v>
   <v name="AVECCONST">      0.00000000      0.00000000      0.00000000</v>
  </separator>
  <separator name="response functions" >
   <i type="logical" name="LADDER"> F  </i>
   <i type="logical" name="LHARTREE"> T  </i>
   <i type="int" name="IBSE">     0</i>
   <i type="logical" name="LTCTE"> F  </i>
   <i type="logical" name="LTETE"> F  </i>
   <i type="logical" name="LFXCEPS"> F  </i>
   <i type="logical" name="L2ORDER"> F  </i>
   <i type="logical" name="LUSEW"> F  </i>
   <i name="ENCUTGW">     -2.00000000</i>
   <i name="ENCUTGWSOFT">     -2.00000000</i>
   <i name="ENCUTLF">     -1.00000000</i>
   <i type="int" name="LMAXMP2">    -1</i>
   <i name="SCISSOR">      0.00000000</i>
   <i type="int" name="NOMEGA">     0</i>
   <i type="int" name="NOMEGAR">     0</i>
   <i type="int" name="NBANDSGW">    -1</i>
   <i type="int" name="NBANDSO">    -1</i>
   <i type="int" name="NBANDSV">    -1</i>
   <i name="OPTEMAX">      0.00000000</i>
   <i type="int" name="NELM">     1</i>
   <i type="int" name="DIM">     3</i>
   <i type="int" name="ANTIRES">     0</i>
   <i name="OMEGAMAX">    -30.00000000</i>
   <i name="OMEGATL">   -200.00000000</i>
   <i type="int" name="OMEGAGRID">     0</i>
   <i name="CSHIFT">     -0.10000000</i>
   <i type="logical" name="SELFENERGY"> F  </i>
   <i type="logical" name="LSPECTRAL"> F  </i>
   <i type="logical" name="ODDONLYGW"> F  </i>
   <i type="logical" name="EVENONLYGW"> F  </i>
   <i type="int" name="NKREDLFX">     1</i>
   <i type="int" name="NKREDLFY">     1</i>
   <i type="int" name="NKREDLFZ">     1</i>
   <i type="int" name="MAXMEM">  1800</i>
   <i type="int" name="TELESCOPE">     0</i>
  </separator>
 </parameters>
 <atominfo>
  <atoms>       6 </atoms>
  <types>       2 </types>
  <array name="atoms" >
   <dimension dim="1">ion</dimension>
   <field type="string">element</field>
   <field type="int">atomtype</field>
   <set>
    <rc><c>H </c><c>   1</c></rc>
    <rc><c>H </c><c>   1</c></rc>
    <rc><c>H </c><c>   1</c></rc>
    <rc><c>H </c><c>   1</c></rc>
    <rc><c>C </c><c>   2</c></rc>
    <rc><c>C </c><c>   2</c></rc>
   </set>
  </array>
  <array name="atomtypes" >
   <dimension dim="1">type</dimension>
   <field type="int">atomspertype</field>
   <field type="string">element</field>
   <field>mass</field>
   <field>valence</field>
   <field type="string">pseudopotential</field>
   <set>
    <rc><c>   4</c><c>H </c><c>      1.00000000</c><c>      1.00000000</c><c> PAW_PBE H 15Jun2001                    </c></rc>
    <rc><c>   2</c><c>C </c><c>     12.01100000</c><c>      4.00000000</c><c> PAW_PBE C 08Apr2002                    </c></rc>
   </set>
  </array>
 </atominfo>
 <structure name="initialpos" >
  <crystal>
   <varray name="basis" >
    <v>       8.00000000       0.00000000       0.00000000 </v>
    <v>       0.00000000       8.00000000       0.00000000 </v>
    <v>       0.00000000       0.00000000       8.00000000 </v>
   </varray>
   <i name="volume">    512.00000000 </i>
   <varray name="rec_basis" >
    <v>       0.12500000       0.00000000       0.00000000 </v>
    <v>       0.00000000       0.12500000       0.00000000 </v>
    <v>       0.00000000       0.00000000       0.12500000 </v>
   </varray>
  </crystal>
  <varray name="positions" >
   <v>       0.00000000       0.11535400       0.15471187 </v>
   <v>       0.00000000       0.88464600       0.15471187 </v>
   <v>       0.00000000       0.11535400       0.84528813 </v>
   <v>       0.00000000       0.88464600       0.84528813 </v>
   <v>       0.00000000       0.00000000       0.08343500 </v>
   <v>       0.00000000       0.00000000       0.91656500 </v>
  </varray>
 </structure>
 <calculation>
  <scstep>
   <time name="dav">    0.30    0.30</time>
   <time name="total">    0.87    0.87</time>
   <energy>
    <i name="alphaZ">      1.18323955 </i>
    <i name="ewald">    172.18683896 </i>
    <i name="hartreedc">   -393.99545989 </i>
    <i name="XCdc">     35.70888522 </i>
    <i name="pawpsdc">     78.78818903 </i>
    <i name="pawaedc">    -81.12517927 </i>
    <i name="eentropy">      0.00000000 </i>
    <i name="bandstr">   -150.79145062 </i>
    <i name="atom">    343.58290885 </i>
    <i name="e_fr_energy">      5.53797183 </i>
    <i name="e_wo_entrp">      5.53797183 </i>
    <i name="e_0_energy">      5.53797183 </i>
   </energy>
  </scstep>
  <scstep>
   <time name="dav">    0.25    0.25</time>
   <time name="total">    0.25    0.25</time>
   <energy>
    <i name="e_fr_energy">    -32.62498955 </i>
    <i name="e_wo_entrp">    -32.62498955 </i>
    <i name="e_0_energy">    -32.62498955 </i>
   </energy>
  </scstep>
  <scstep>
   <time name="dav">    0.40    0.40</time>
   <time name="total">    0.40    0.42</time>
   <energy>
    <i name="e_fr_energy">    -35.79859214 </i>
    <i name="e_wo_entrp">    -35.79859214 </i>
    <i name="e_0_energy">    -35.79859214 </i>
   </energy>
  </scstep>
  <scstep>
   <time name="dav">    0.33    0.33</time>
   <time name="total">    0.33    0.34</time>
   <energy>
    <i name="e_fr_energy">    -35.80508191 </i>
    <i name="e_wo_entrp">    -35.80508191 </i>
    <i name="e_0_energy">    -35.80508191 </i>
   </energy>
  </scstep>
  <scstep>
   <time name="dav">    0.26    0.26</time>
   <time name="total">    0.35    0.36</time>
   <energy>
    <i name="e_fr_energy">    -35.80509363 </i>
    <i name="e_wo_entrp">    -35.80509363 </i>
    <i name="e_0_energy">    -35.80509363 </i>
   </energy>
  </scstep>
  <scstep>
   <time name="dav">    0.25    0.25</time>
   <time name="total">    0.88    0.89</time>
   <energy>
    <i name="e_fr_energy">    -32.68263724 </i>
    <i name="e_wo_entrp">    -32.68263724 </i>
    <i name="e_0_energy">    -32.68263724 </i>
   </energy>
  </scstep>
  <scstep>
   <time name="dav">    0.31    0.31</time>
   <time name="total">    0.95    0.96</time>
   <energy>
    <i name="e_fr_energy">    -31.94972068 </i>
    <i name="e_wo_entrp">    -31.94972068 </i>
    <i name="e_0_energy">    -31.94972068 </i>
   </energy>
  </scstep>
  <scstep>
   <time name="dav">    0.23    0.23</time>
   <time name="total">    0.86    0.88</time>
   <energy>
    <i name="e_fr_energy">    -31.83932758 </i>
    <i name="e_wo_entrp">    -31.83932758 </i>
    <i name="e_0_energy">    -31.83932758 </i>
   </energy>
  </scstep>
  <scstep>
   <time name="dav">    0.26    0.26</time>
   <time name="total">    0.90    0.91</time>
   <energy>
    <i name="e_fr_energy">    -31.83393850 </i>
    <i name="e_wo_entrp">    -31.83393850 </i>
    <i name="e_0_energy">    -31.83393850 </i>
   </energy>
  </scstep>
  <scstep>
   <time name="dav">    0.25    0.25</time>
   <time name="total">    0.88    0.89</time>
   <energy>
    <i name="e_fr_energy">    -31.83638182 </i>
    <i name="e_wo_entrp">    -31.83638182 </i>
    <i name="e_0_energy">    -31.83638182 </i>
   </energy>
  </scstep>
  <scstep>
   <time name="dav">    0.25    0.25</time>
   <time name="total">    0.88    0.89</time>
   <energy>
    <i name="e_fr_energy">    -31.83723730 </i>
    <i name="e_wo_entrp">    -31.83723730 </i>
    <i name="e_0_energy">    -31.83723730 </i>
   </energy>
  </scstep>
  <scstep>
   <time name="dav">    0.29    0.29</time>
   <time name="total">    1.06    1.07</time>
   <energy>
    <i name="e_fr_energy">    -31.84160376 </i>
    <i name="e_wo_entrp">    -31.84160376 </i>
    <i name="e_0_energy">    -31.84160376 </i>
   </energy>
  </scstep>
  <scstep>
   <time name="dav">    0.30    0.30</time>
   <time name="total">    1.07    1.09</time>
   <energy>
    <i name="e_fr_energy">    -31.84414510 </i>
    <i name="e_wo_entrp">    -31.84414510 </i>
    <i name="e_0_energy">    -31.84414510 </i>
   </energy>
  </scstep>
  <scstep>
   <time name="dav">    0.30    0.30</time>
   <time name="total">    1.07    1.09</time>
   <energy>
    <i name="e_fr_energy">    -31.84508013 </i>
    <i name="e_wo_entrp">    -31.84508013 </i>
    <i name="e_0_energy">    -31.84508013 </i>
   </energy>
  </scstep>
  <scstep>
   <time name="dav">    0.32    0.32</time>
   <time name="total">    1.09    1.11</time>
   <energy>
    <i name="e_fr_energy">    -31.84521165 </i>
    <i name="e_wo_entrp">    -31.84521165 </i>
    <i name="e_0_energy">    -31.84521165 </i>
   </energy>
  </scstep>
  <scstep>
   <time name="dav">    0.29    0.29</time>
   <time name="total">    1.07    1.09</time>
   <energy>
    <i name="e_fr_energy">    -31.84533754 </i>
    <i name="e_wo_entrp">    -31.84533754 </i>
    <i name="e_0_energy">    -31.84533754 </i>
   </energy>
  </scstep>
  <scstep>
   <time name="dav">    0.30    0.30</time>
   <time name="total">    0.96    0.98</time>
   <energy>
    <i name="alphaZ">      1.18323955 </i>
    <i name="ewald">    172.18683896 </i>
    <i name="hartreedc">   -449.82975908 </i>
    <i name="XCdc">     39.12638818 </i>
    <i name="pawpsdc">    158.16219473 </i>
    <i name="pawaedc">   -160.71725722 </i>
    <i name="eentropy">      0.00000000 </i>
    <i name="bandstr">   -135.53990094 </i>
    <i name="atom">    343.58290885 </i>
    <i name="e_fr_energy">    -31.84534697 </i>
    <i name="e_wo_entrp">    -31.84534697 </i>
    <i name="e_0_energy">    -31.84534697 </i>
   </energy>
  </scstep>
  <parameters_embedded>
   <separator name="dft+d2" >
    <i type="logical" name="LVDW"> F  </i>
   </separator>
  </parameters_embedded>
  <structure>
   <crystal>
    <varray name="basis" >
     <v>       8.00000000       0.00000000       0.00000000 </v>
     <v>       0.00000000       8.00000000       0.00000000 </v>
     <v>       0.00000000       0.00000000       8.00000000 </v>
    </varray>
    <i name="volume">    512.00000000 </i>
    <varray name="rec_basis" >
     <v>       0.12500000       0.00000000       0.00000000 </v>
     <v>       0.00000000       0.12500000       0.00000000 </v>
     <v>       0.00000000       0.00000000       0.12500000 </v>
    </varray>
   </crystal>
   <varray name="positions" >
    <v>       0.00000000       0.11535400       0.15471187 </v>
    <v>       0.00000000       0.88464600       0.15471187 </v>
    <v>       0.00000000       0.11535400       0.84528813 </v>
    <v>       0.00000000       0.88464600       0.84528813 </v>
    <v>       0.00000000       0.00000000       0.08343500 </v>
    <v>       0.00000000       0.00000000       0.91656500 </v>
   </varray>
  </structure>
  <varray name="forces" >
   <v>       0.00000000       0.37145055       0.22700943 </v>
   <v>       0.00000000      -0.37145055       0.22700943 </v>
   <v>       0.00000000       0.37145055      -0.22700943 </v>
   <v>       0.00000000      -0.37145055      -0.22700943 </v>
   <v>       0.00000000       0.00000000      -0.24778926 </v>
   <v>       0.00000000       0.00000000       0.24778926 </v>
  </varray>
  <varray name="stress" >
   <v>      -8.78500786       0.00000000       0.00000000 </v>
   <v>       0.00000000      -6.66760668       0.00000000 </v>
   <v>       0.00000000       0.00000000      -8.23055787 </v>
  </varray>
  <energy>
   <i name="e_fr_energy">    -31.84534697 </i>
   <i name="e_wo_entrp">    -31.84534697 </i>
   <i name="e_0_energy">      0.00000000 </i>
  </energy>
  <time name="totalsc">   16.04   16.38</time>
 </calculation>
 <calculation>
  <scstep>
   <time name="dav">    0.28    0.28</time>
   <time name="total">    0.99    0.99</time>
   <energy>
    <i name="alphaZ">      1.18323955 </i>
    <i name="ewald">    169.31292587 </i>
    <i name="hartreedc">   -448.42271869 </i>
    <i name="XCdc">     39.02208362 </i>
    <i name="pawpsdc">    158.16094928 </i>
    <i name="pawaedc">   -160.71588260 </i>
    <i name="eentropy">      0.00000000 </i>
    <i name="bandstr">   -133.95113800 </i>
    <i name="atom">    343.58290885 </i>
    <i name="e_fr_energy">    -31.82763213 </i>
    <i name="e_wo_entrp">    -31.82763213 </i>
    <i name="e_0_energy">    -31.82763213 </i>
   </energy>
  </scstep>
  <scstep>
   <time name="dav">    0.26    0.26</time>
   <time name="total">    0.96    0.96</time>
   <energy>
    <i name="e_fr_energy">    -31.82662591 </i>
    <i name="e_wo_entrp">    -31.82662591 </i>
    <i name="e_0_energy">    -31.82662591 </i>
   </energy>
  </scstep>
  <scstep>
   <time name="dav">    0.28    0.28</time>
   <time name="total">    0.96    0.97</time>
   <energy>
    <i name="e_fr_energy">    -31.82494332 </i>
    <i name="e_wo_entrp">    -31.82494332 </i>
    <i name="e_0_energy">    -31.82494332 </i>
   </energy>
  </scstep>
  <scstep>
   <time name="dav">    0.28    0.28</time>
   <time name="total">    0.86    0.88</time>
   <energy>
    <i name="alphaZ">      1.18323955 </i>
    <i name="ewald">    169.31292587 </i>
    <i name="hartreedc">   -447.47903943 </i>
    <i name="XCdc">     38.95086210 </i>
    <i name="pawpsdc">    155.49410882 </i>
    <i name="pawaedc">   -158.03771893 </i>
    <i name="eentropy">      0.00000000 </i>
    <i name="bandstr">   -134.83227050 </i>
    <i name="atom">    343.58290885 </i>
    <i name="e_fr_energy">    -31.82498367 </i>
    <i name="e_wo_entrp">    -31.82498367 </i>
    <i name="e_0_energy">    -31.82498367 </i>
   </energy>
  </scstep>
  <structure>
   <crystal>
    <varray name="basis" >
     <v>       8.00000000       0.00000000       0.00000000 </v>
     <v>       0.00000000       8.00000000       0.00000000 </v>
     <v>       0.00000000       0.00000000       8.00000000 </v>
    </varray>
    <i name="volume">    512.00000000 </i>
    <varray name="rec_basis" >
     <v>       0.12500000       0.00000000       0.00000000 </v>
     <v>       0.00000000       0.12500000       0.00000000 </v>
     <v>       0.00000000       0.00000000       0.12500000 </v>
    </varray>
   </crystal>
   <varray name="positions" >
    <v>       0.00000000       0.11759397       0.15608082 </v>
    <v>       0.00000000       0.88240603       0.15608082 </v>
    <v>       0.00000000       0.11759397       0.84391918 </v>
    <v>       0.00000000       0.88240603       0.84391918 </v>
    <v>       0.00000000       0.00000000       0.08194075 </v>
    <v>       0.00000000       0.00000000       0.91805925 </v>
   </varray>
  </structure>
  <varray name="forces" >
   <v>       0.00000000      -0.33462094      -0.22508305 </v>
   <v>       0.00000000       0.33462094      -0.22508305 </v>
   <v>       0.00000000      -0.33462094       0.22508305 </v>
   <v>       0.00000000       0.33462094       0.22508305 </v>
   <v>       0.00000000       0.00000000       2.00358663 </v>
   <v>       0.00000000       0.00000000      -2.00358663 </v>
  </varray>
  <varray name="stress" >
   <v>      -8.74910652       0.00000000       0.00000000 </v>
   <v>       0.00000000     -14.46094599       0.00000000 </v>
   <v>       0.00000000       0.00000000      -6.04376672 </v>
  </varray>
  <energy>
   <i name="e_fr_energy">    -31.82498367 </i>
   <i name="e_wo_entrp">    -31.82498367 </i>
   <i name="e_0_energy">      0.00000000 </i>
  </energy>
  <time name="totalsc">    5.12    5.22</time>
 </calculation>
 <calculation>
  <scstep>
   <time name="dav">    0.28    0.28</time>
   <time name="total">    0.97    0.97</time>
   <energy>
    <i name="alphaZ">      1.18323955 </i>
    <i name="ewald">    171.18515458 </i>
    <i name="hartreedc">   -448.40071868 </i>
    <i name="XCdc">     39.01878362 </i>
    <i name="pawpsdc">    155.45991186 </i>
    <i name="pawaedc">   -158.00409434 </i>
    <i name="eentropy">      0.00000000 </i>
    <i name="bandstr">   -135.87861577 </i>
    <i name="atom">    343.58290885 </i>
    <i name="e_fr_energy">    -31.85343033 </i>
    <i name="e_wo_entrp">    -31.85343033 </i>
    <i name="e_0_energy">    -31.85343033 </i>
   </energy>
  </scstep>
  <scstep>
   <time name="dav">    0.26    0.26</time>
   <time name="total">    0.96    0.96</time>
   <energy>
    <i name="e_fr_energy">    -31.85311898 </i>
    <i name="e_wo_entrp">    -31.85311898 </i>
    <i name="e_0_energy">    -31.85311898 </i>
   </energy>
  </scstep>
  <scstep>
   <time name="dav">    0.26    0.26</time>
   <time name="total">    0.97    0.99</time>
   <energy>
    <i name="e_fr_energy">    -31.85241994 </i>
    <i name="e_wo_entrp">    -31.85241994 </i>
    <i name="e_0_energy">    -31.85241994 </i>
   </energy>
  </scstep>
  <scstep>
   <time name="dav">    0.26    0.26</time>
   <time name="total">    0.87    0.89</time>
   <energy>
    <i name="alphaZ">      1.18323955 </i>
    <i name="ewald">    171.18515458 </i>
    <i name="hartreedc">   -449.02104798 </i>
    <i name="XCdc">     39.06624325 </i>
    <i name="pawpsdc">    157.13026467 </i>
    <i name="pawaedc">   -159.68157215 </i>
    <i name="eentropy">      0.00000000 </i>
    <i name="bandstr">   -135.29759220 </i>
    <i name="atom">    343.58290885 </i>
    <i name="e_fr_energy">    -31.85240142 </i>
    <i name="e_wo_entrp">    -31.85240142 </i>
    <i name="e_0_energy">    -31.85240142 </i>
   </energy>
  </scstep>
  <structure>
   <crystal>
    <varray name="basis" >
     <v>       8.00000000       0.00000000       0.00000000 </v>
     <v>       0.00000000       8.00000000       0.00000000 </v>
     <v>       0.00000000       0.00000000       8.00000000 </v>
    </varray>
    <i name="volume">    512.00000000 </i>
    <varray name="rec_basis" >
     <v>       0.12500000       0.00000000       0.00000000 </v>
     <v>       0.00000000       0.12500000       0.00000000 </v>
     <v>       0.00000000       0.00000000       0.12500000 </v>
    </varray>
   </crystal>
   <varray name="positions" >
    <v>       0.00000000       0.11610240       0.15516926 </v>
    <v>       0.00000000       0.88389760       0.15516926 </v>
    <v>       0.00000000       0.11610240       0.84483074 </v>
    <v>       0.00000000       0.88389760       0.84483074 </v>
    <v>       0.00000000       0.00000000       0.08293575 </v>
    <v>       0.00000000       0.00000000       0.91706425 </v>
   </varray>
  </structure>
  <varray name="forces" >
   <v>       0.00000000       0.12572838       0.07039229 </v>
   <v>       0.00000000      -0.12572838       0.07039229 </v>
   <v>       0.00000000       0.12572838      -0.07039229 </v>
   <v>       0.00000000      -0.12572838      -0.07039229 </v>
   <v>       0.00000000       0.00000000       0.50087926 </v>
   <v>       0.00000000       0.00000000      -0.50087926 </v>
  </varray>
  <varray name="stress" >
   <v>      -8.79766762       0.00000000       0.00000000 </v>
   <v>       0.00000000      -9.43385086       0.00000000 </v>
   <v>       0.00000000       0.00000000      -7.58715409 </v>
  </varray>
  <energy>
   <i name="e_fr_energy">    -31.85240142 </i>
   <i name="e_wo_entrp">    -31.85240142 </i>
   <i name="e_0_energy">      0.00000000 </i>
  </energy>
  <time name="totalsc">    5.14    5.20</time>
 </calculation>
 <calculation>
  <scstep>
   <time name="dav">    0.26    0.26</time>
   <time name="total">    0.97    0.97</time>
   <energy>
    <i name="alphaZ">      1.18323955 </i>
    <i name="ewald">    164.63361267 </i>
    <i name="hartreedc">   -444.60732753 </i>
    <i name="XCdc">     38.91035724 </i>
    <i name="pawpsdc">    157.16179249 </i>
    <i name="pawaedc">   -159.71273354 </i>
    <i name="eentropy">      0.00000000 </i>
    <i name="bandstr">   -133.00598759 </i>
    <i name="atom">    343.58290885 </i>
    <i name="e_fr_energy">    -31.85413786 </i>
    <i name="e_wo_entrp">    -31.85413786 </i>
    <i name="e_0_energy">    -31.85413786 </i>
   </energy>
  </scstep>
  <scstep>
   <time name="dav">    0.26    0.26</time>
   <time name="total">    0.95    0.95</time>
   <energy>
    <i name="e_fr_energy">    -31.84949078 </i>
    <i name="e_wo_entrp">    -31.84949078 </i>
    <i name="e_0_energy">    -31.84949078 </i>
   </energy>
  </scstep>
  <scstep>
   <time name="dav">    0.35    0.35</time>
   <time name="total">    1.02    1.03</time>
   <energy>
    <i name="e_fr_energy">    -31.84871961 </i>
    <i name="e_wo_entrp">    -31.84871961 </i>
    <i name="e_0_energy">    -31.84871961 </i>
   </energy>
  </scstep>
  <scstep>
   <time name="dav">    0.26    0.26</time>
   <time name="total">    0.93    0.94</time>
   <energy>
    <i name="e_fr_energy">    -31.84848412 </i>
    <i name="e_wo_entrp">    -31.84848412 </i>
    <i name="e_0_energy">    -31.84848412 </i>
   </energy>
  </scstep>
  <scstep>
   <time name="dav">    0.29    0.29</time>
   <time name="total">    0.87    0.88</time>
   <energy>
    <i name="alphaZ">      1.18323955 </i>
    <i name="ewald">    164.63361267 </i>
    <i name="hartreedc">   -443.05157590 </i>
    <i name="XCdc">     38.83015743 </i>
    <i name="pawpsdc">    151.95772271 </i>
    <i name="pawaedc">   -154.48764440 </i>
    <i name="eentropy">      0.00000000 </i>
    <i name="bandstr">   -134.49692870 </i>
    <i name="atom">    343.58290885 </i>
    <i name="e_fr_energy">    -31.84850779 </i>
    <i name="e_wo_entrp">    -31.84850779 </i>
    <i name="e_0_energy">    -31.84850779 </i>
   </energy>
  </scstep>
  <structure>
   <crystal>
    <varray name="basis" >
     <v>       8.00000000       0.00000000       0.00000000 </v>
     <v>       0.00000000       8.00000000       0.00000000 </v>
     <v>       0.00000000       0.00000000       8.00000000 </v>
    </varray>
    <i name="volume">    512.00000000 </i>
    <varray name="rec_basis" >
     <v>       0.12500000       0.00000000       0.00000000 </v>
     <v>       0.00000000       0.12500000       0.00000000 </v>
     <v>       0.00000000       0.00000000       0.12500000 </v>
    </varray>
   </crystal>
   <varray name="positions" >
    <v>       0.00000000       0.11785924       0.15621244 </v>
    <v>       0.00000000       0.88214076       0.15621244 </v>
    <v>       0.00000000       0.11785924       0.84378756 </v>
    <v>       0.00000000       0.88214076       0.84378756 </v>
    <v>       0.00000000       0.00000000       0.08453066 </v>
    <v>       0.00000000       0.00000000       0.91546934 </v>
   </varray>
  </structure>
  <varray name="forces" >
   <v>       0.00000000      -0.18103553      -0.06286822 </v>
   <v>       0.00000000       0.18103553      -0.06286822 </v>
   <v>       0.00000000      -0.18103553       0.06286822 </v>
   <v>       0.00000000       0.18103553       0.06286822 </v>
   <v>       0.00000000       0.00000000      -0.65484622 </v>
   <v>       0.00000000       0.00000000       0.65484622 </v>
  </varray>
  <varray name="stress" >
   <v>      -8.66679064       0.00000000       0.00000000 </v>
   <v>       0.00000000     -12.79693562       0.00000000 </v>
   <v>       0.00000000       0.00000000     -14.08406516 </v>
  </varray>
  <energy>
   <i name="e_fr_energy">    -31.84850779 </i>
   <i name="e_wo_entrp">    -31.84850779 </i>
   <i name="e_0_energy">      0.00000000 </i>
  </energy>
  <time name="totalsc">    6.07    6.15</time>
 </calculation>
 <calculation>
  <scstep>
   <time name="dav">    0.26    0.26</time>
   <time name="total">    0.94    0.94</time>
   <energy>
    <i name="alphaZ">      1.18323955 </i>
    <i name="ewald">    168.41544818 </i>
    <i name="hartreedc">   -445.63021782 </i>
    <i name="XCdc">     38.92171679 </i>
    <i name="pawpsdc">    151.99508505 </i>
    <i name="pawaedc">   -154.52544970 </i>
    <i name="eentropy">      0.00000000 </i>
    <i name="bandstr">   -135.80135569 </i>
    <i name="atom">    343.58290885 </i>
    <i name="e_fr_energy">    -31.85862479 </i>
    <i name="e_wo_entrp">    -31.85862479 </i>
    <i name="e_0_energy">    -31.85862479 </i>
   </energy>
  </scstep>
  <scstep>
   <time name="dav">    0.26    0.26</time>
   <time name="total">    0.95    0.96</time>
   <energy>
    <i name="e_fr_energy">    -31.85727929 </i>
    <i name="e_wo_entrp">    -31.85727929 </i>
    <i name="e_0_energy">    -31.85727929 </i>
   </energy>
  </scstep>
  <scstep>
   <time name="dav">    0.26    0.26</time>
   <time name="total">    0.97    0.98</time>
   <energy>
    <i name="e_fr_energy">    -31.85707845 </i>
    <i name="e_wo_entrp">    -31.85707845 </i>
    <i name="e_0_energy">    -31.85707845 </i>
   </energy>
  </scstep>
  <scstep>
   <time name="dav">    0.29    0.29</time>
   <time name="total">    0.90    0.91</time>
   <energy>
    <i name="alphaZ">      1.18323955 </i>
    <i name="ewald">    168.41544818 </i>
    <i name="hartreedc">   -446.53028670 </i>
    <i name="XCdc">     38.96705927 </i>
    <i name="pawpsdc">    154.72232054 </i>
    <i name="pawaedc">   -157.26486705 </i>
    <i name="eentropy">      0.00000000 </i>
    <i name="bandstr">   -134.93280473 </i>
    <i name="atom">    343.58290885 </i>
    <i name="e_fr_energy">    -31.85698209 </i>
    <i name="e_wo_entrp">    -31.85698209 </i>
    <i name="e_0_energy">    -31.85698209 </i>
   </energy>
  </scstep>
  <structure>
   <crystal>
    <varray name="basis" >
     <v>       8.00000000       0.00000000       0.00000000 </v>
     <v>       0.00000000       8.00000000       0.00000000 </v>
     <v>       0.00000000       0.00000000       8.00000000 </v>
    </varray>
    <i name="volume">    512.00000000 </i>
    <varray name="rec_basis" >
     <v>       0.12500000       0.00000000       0.00000000 </v>
     <v>       0.00000000       0.12500000       0.00000000 </v>
     <v>       0.00000000       0.00000000       0.12500000 </v>
    </varray>
   </crystal>
   <varray name="positions" >
    <v>       0.00000000       0.11683927       0.15560680 </v>
    <v>       0.00000000       0.88316073       0.15560680 </v>
    <v>       0.00000000       0.11683927       0.84439320 </v>
    <v>       0.00000000       0.88316073       0.84439320 </v>
    <v>       0.00000000       0.00000000       0.08360470 </v>
    <v>       0.00000000       0.00000000       0.91639530 </v>
   </varray>
  </structure>
  <varray name="forces" >
   <v>       0.00000000      -0.00193591       0.01587987 </v>
   <v>       0.00000000       0.00193591       0.01587987 </v>
   <v>       0.00000000      -0.00193591      -0.01587987 </v>
   <v>       0.00000000       0.00193591      -0.01587987 </v>
   <v>       0.00000000       0.00000000       0.00300651 </v>
   <v>       0.00000000       0.00000000      -0.00300651 </v>
  </varray>
  <varray name="stress" >
   <v>      -8.83584508       0.00000000       0.00000000 </v>
   <v>       0.00000000     -10.99177380       0.00000000 </v>
   <v>       0.00000000       0.00000000     -10.43111404 </v>
  </varray>
  <energy>
   <i name="e_fr_energy">    -31.85698209 </i>
   <i name="e_wo_entrp">    -31.85698209 </i>
   <i name="e_0_energy">      0.00000000 </i>
  </energy>
  <time name="totalsc">    4.98    5.13</time>
  <eigenvalues>
   <array>
    <dimension dim="1">band</dimension>
    <dimension dim="2">kpoint</dimension>
    <dimension dim="3">spin</dimension>
    <field>eigene</field>
    <field>occ</field>
    <set>
     <set comment="spin 1">
      <set comment="kpoint 1">
       <r>  -18.4390    1.0000 </r>
       <r>  -13.8273    1.0000 </r>
       <r>  -11.0132    1.0000 </r>
       <r>   -9.7539    1.0000 </r>
       <r>   -8.0686    1.0000 </r>
       <r>   -6.3644    1.0000 </r>
       <r>   -0.6678    0.0000 </r>
       <r>   -0.5296    0.0000 </r>
       <r>    1.2526    0.0000 </r>
       <r>    1.3054    0.0000 </r>
      </set>
     </set>
    </set>
   </array>
  </eigenvalues>
  <separator name="orbital magnetization" >
   <v name="MAGDIPOLOUT">      0.00000000      0.00000000      0.00000000</v>
  </separator>
  <dos>
   <i name="efermi">     -5.40071970 </i>
   <total>
    <array>
     <dimension dim="1">gridpoints</dimension>
     <dimension dim="2">spin</dimension>
     <field>energy</field>
     <field>total</field>
     <field>integrated</field>
     <set>
      <set comment="spin 1">
       <r>   -20.4390     0.0000     0.0000 </r>
       <r>   -20.3599     0.0000     0.0000 </r>
       <r>   -20.2807     0.0000     0.0000 </r>
       <r>   -20.2016     0.0000     0.0000 </r>
       <r>   -20.1224     0.0000     0.0000 </r>
       <r>   -20.0433     0.0000     0.0000 </r>
       <r>   -19.9641     0.0000     0.0000 </r>
       <r>   -19.8850     0.0000     0.0000 </r>
       <r>   -19.8058     0.0000     0.0000 </r>
       <r>   -19.7267     0.0000     0.0000 </r>
       <r>   -19.6475     0.0000     0.0000 </r>
       <r>   -19.5684     0.0000     0.0000 </r>
       <r>   -19.4892     0.0000     0.0000 </r>
       <r>   -19.4101     0.0000     0.0000 </r>
       <r>   -19.3309     0.0000     0.0000 </r>
       <r>   -19.2518     0.0000     0.0000 </r>
       <r>   -19.1726     0.0000     0.0000 </r>
       <r>   -19.0935     0.0000     0.0000 </r>
       <r>   -19.0143     0.0006     0.0000 </r>
       <r>   -18.9352     0.0051     0.0005 </r>
       <r>   -18.8561     0.0346     0.0032 </r>
       <r>   -18.7769     0.1730     0.0169 </r>
       <r>   -18.6978     0.6372     0.0673 </r>
       <r>   -18.6186     1.7284     0.2041 </r>
       <r>   -18.5395     3.4547     0.4775 </r>
       <r>   -18.4603     5.0886     0.8803 </r>
       <r>   -18.3812     5.5240     1.3175 </r>
       <r>   -18.3020     4.4197     1.6673 </r>
       <r>   -18.2229     2.6061     1.8736 </r>
       <r>   -18.1437     1.1323     1.9632 </r>
       <r>   -18.0646     0.3625     1.9919 </r>
       <r>   -17.9854     0.0855     1.9987 </r>
       <r>   -17.9063     0.0148     1.9998 </r>
       <r>   -17.8271     0.0019     2.0000 </r>
       <r>   -17.7480     0.0002     2.0000 </r>
       <r>   -17.6688     0.0000     2.0000 </r>
       <r>   -17.5897     0.0000     2.0000 </r>
       <r>   -17.5105     0.0000     2.0000 </r>
       <r>   -17.4314     0.0000     2.0000 </r>
       <r>   -17.3522     0.0000     2.0000 </r>
       <r>   -17.2731     0.0000     2.0000 </r>
       <r>   -17.1939     0.0000     2.0000 </r>
       <r>   -17.1148     0.0000     2.0000 </r>
       <r>   -17.0356     0.0000     2.0000 </r>
       <r>   -16.9565     0.0000     2.0000 </r>
       <r>   -16.8773     0.0000     2.0000 </r>
       <r>   -16.7982     0.0000     2.0000 </r>
       <r>   -16.7191     0.0000     2.0000 </r>
       <r>   -16.6399     0.0000     2.0000 </r>
       <r>   -16.5608     0.0000     2.0000 </r>
       <r>   -16.4816     0.0000     2.0000 </r>
       <r>   -16.4025     0.0000     2.0000 </r>
       <r>   -16.3233     0.0000     2.0000 </r>
       <r>   -16.2442     0.0000     2.0000 </r>
       <r>   -16.1650     0.0000     2.0000 </r>
       <r>   -16.0859     0.0000     2.0000 </r>
       <r>   -16.0067     0.0000     2.0000 </r>
       <r>   -15.9276     0.0000     2.0000 </r>
       <r>   -15.8484     0.0000     2.0000 </r>
       <r>   -15.7693     0.0000     2.0000 </r>
       <r>   -15.6901     0.0000     2.0000 </r>
       <r>   -15.6110     0.0000     2.0000 </r>
       <r>   -15.5318     0.0000     2.0000 </r>
       <r>   -15.4527     0.0000     2.0000 </r>
       <r>   -15.3735     0.0000     2.0000 </r>
       <r>   -15.2944     0.0000     2.0000 </r>
       <r>   -15.2152     0.0000     2.0000 </r>
       <r>   -15.1361     0.0000     2.0000 </r>
       <r>   -15.0569     0.0000     2.0000 </r>
       <r>   -14.9778     0.0000     2.0000 </r>
       <r>   -14.8986     0.0000     2.0000 </r>
       <r>   -14.8195     0.0000     2.0000 </r>
       <r>   -14.7404     0.0000     2.0000 </r>
       <r>   -14.6612     0.0000     2.0000 </r>
       <r>   -14.5821     0.0000     2.0000 </r>
       <r>   -14.5029     0.0000     2.0000 </r>
       <r>   -14.4238     0.0003     2.0000 </r>
       <r>   -14.3446     0.0029     2.0003 </r>
       <r>   -14.2655     0.0214     2.0019 </r>
       <r>   -14.1863     0.1161     2.0111 </r>
       <r>   -14.1072     0.4639     2.0479 </r>
       <r>   -14.0280     1.3651     2.1559 </r>
       <r>   -13.9489     2.9597     2.3902 </r>
       <r>   -13.8697     4.7288     2.7644 </r>
       <r>   -13.7906     5.5681     3.2051 </r>
       <r>   -13.7114     4.8321     3.5876 </r>
       <r>   -13.6323     3.0906     3.8322 </r>
       <r>   -13.5531     1.4567     3.9475 </r>
       <r>   -13.4740     0.5058     3.9875 </r>
       <r>   -13.3948     0.1294     3.9978 </r>
       <r>   -13.3157     0.0244     3.9997 </r>
       <r>   -13.2365     0.0034     4.0000 </r>
       <r>   -13.1574     0.0003     4.0000 </r>
       <r>   -13.0782     0.0000     4.0000 </r>
       <r>   -12.9991     0.0000     4.0000 </r>
       <r>   -12.9199     0.0000     4.0000 </r>
       <r>   -12.8408     0.0000     4.0000 </r>
       <r>   -12.7616     0.0000     4.0000 </r>
       <r>   -12.6825     0.0000     4.0000 </r>
       <r>   -12.6034     0.0000     4.0000 </r>
       <r>   -12.5242     0.0000     4.0000 </r>
       <r>   -12.4451     0.0000     4.0000 </r>
       <r>   -12.3659     0.0000     4.0000 </r>
       <r>   -12.2868     0.0000     4.0000 </r>
       <r>   -12.2076     0.0000     4.0000 </r>
       <r>   -12.1285     0.0000     4.0000 </r>
       <r>   -12.0493     0.0000     4.0000 </r>
       <r>   -11.9702     0.0000     4.0000 </r>
       <r>   -11.8910     0.0000     4.0000 </r>
       <r>   -11.8119     0.0000     4.0000 </r>
       <r>   -11.7327     0.0000     4.0000 </r>
       <r>   -11.6536     0.0001     4.0000 </r>
       <r>   -11.5744     0.0008     4.0001 </r>
       <r>   -11.4953     0.0073     4.0007 </r>
       <r>   -11.4161     0.0471     4.0044 </r>
       <r>   -11.3370     0.2230     4.0220 </r>
       <r>   -11.2578     0.7779     4.0836 </r>
       <r>   -11.1787     1.9988     4.2418 </r>
       <r>   -11.0995     3.7842     4.5413 </r>
       <r>   -11.0204     5.2797     4.9592 </r>
       <r>   -10.9412     5.4291     5.3889 </r>
       <r>   -10.8621     4.1145     5.7146 </r>
       <r>   -10.7829     2.2980     5.8964 </r>
       <r>   -10.7038     0.9457     5.9713 </r>
       <r>   -10.6246     0.2867     5.9940 </r>
       <r>   -10.5455     0.0640     5.9991 </r>
       <r>   -10.4664     0.0105     5.9999 </r>
       <r>   -10.3872     0.0014     6.0000 </r>
       <r>   -10.3081     0.0011     6.0001 </r>
       <r>   -10.2289     0.0088     6.0008 </r>
       <r>   -10.1498     0.0549     6.0051 </r>
       <r>   -10.0706     0.2529     6.0251 </r>
       <r>    -9.9915     0.8580     6.0931 </r>
       <r>    -9.9123     2.1444     6.2628 </r>
       <r>    -9.8332     3.9492     6.5753 </r>
       <r>    -9.7540     5.3599     6.9996 </r>
       <r>    -9.6749     5.3615     7.4239 </r>
       <r>    -9.5957     3.9526     7.7368 </r>
       <r>    -9.5166     2.1475     7.9067 </r>
       <r>    -9.4374     0.8597     7.9748 </r>
       <r>    -9.3583     0.2535     7.9949 </r>
       <r>    -9.2791     0.0551     7.9992 </r>
       <r>    -9.2000     0.0088     7.9999 </r>
       <r>    -9.1208     0.0010     8.0000 </r>
       <r>    -9.0417     0.0001     8.0000 </r>
       <r>    -8.9625     0.0000     8.0000 </r>
       <r>    -8.8834     0.0000     8.0000 </r>
       <r>    -8.8042     0.0000     8.0000 </r>
       <r>    -8.7251     0.0000     8.0000 </r>
       <r>    -8.6459     0.0005     8.0000 </r>
       <r>    -8.5668     0.0048     8.0004 </r>
       <r>    -8.4877     0.0331     8.0030 </r>
       <r>    -8.4085     0.1667     8.0162 </r>
       <r>    -8.3294     0.6186     8.0652 </r>
       <r>    -8.2502     1.6912     8.1991 </r>
       <r>    -8.1711     3.4069     8.4687 </r>
       <r>    -8.0919     5.0576     8.8690 </r>
       <r>    -8.0128     5.5334     9.3070 </r>
       <r>    -7.9336     4.4619     9.6601 </r>
       <r>    -7.8545     2.6516     9.8700 </r>
       <r>    -7.7753     1.1612     9.9619 </r>
       <r>    -7.6962     0.3746     9.9915 </r>
       <r>    -7.6170     0.0890     9.9986 </r>
       <r>    -7.5379     0.0156     9.9998 </r>
       <r>    -7.4587     0.0020    10.0000 </r>
       <r>    -7.3796     0.0002    10.0000 </r>
       <r>    -7.3004     0.0000    10.0000 </r>
       <r>    -7.2213     0.0000    10.0000 </r>
       <r>    -7.1421     0.0000    10.0000 </r>
       <r>    -7.0630     0.0000    10.0000 </r>
       <r>    -6.9838     0.0001    10.0000 </r>
       <r>    -6.9047     0.0015    10.0001 </r>
       <r>    -6.8255     0.0123    10.0011 </r>
       <r>    -6.7464     0.0732    10.0069 </r>
       <r>    -6.6672     0.3198    10.0322 </r>
       <r>    -6.5881     1.0287    10.1136 </r>
       <r>    -6.5089     2.4379    10.3066 </r>
       <r>    -6.4298     4.2573    10.6436 </r>
       <r>    -6.3507     5.4791    11.0772 </r>
       <r>    -6.2715     5.1971    11.4886 </r>
       <r>    -6.1924     3.6331    11.7761 </r>
       <r>    -6.1132     1.8717    11.9243 </r>
       <r>    -6.0341     0.7105    11.9805 </r>
       <r>    -5.9549     0.1987    11.9962 </r>
       <r>    -5.8758     0.0409    11.9994 </r>
       <r>    -5.7966     0.0062    11.9999 </r>
       <r>    -5.7175     0.0007    12.0000 </r>
       <r>    -5.6383     0.0001    12.0000 </r>
       <r>    -5.5592     0.0000    12.0000 </r>
       <r>    -5.4800     0.0000    12.0000 </r>
       <r>    -5.4009     0.0000    12.0000 </r>
       <r>    -5.3217     0.0000    12.0000 </r>
       <r>    -5.2426     0.0000    12.0000 </r>
       <r>    -5.1634     0.0000    12.0000 </r>
       <r>    -5.0843     0.0000    12.0000 </r>
       <r>    -5.0051     0.0000    12.0000 </r>
       <r>    -4.9260     0.0000    12.0000 </r>
       <r>    -4.8468     0.0000    12.0000 </r>
       <r>    -4.7677     0.0000    12.0000 </r>
       <r>    -4.6885     0.0000    12.0000 </r>
       <r>    -4.6094     0.0000    12.0000 </r>
       <r>    -4.5302     0.0000    12.0000 </r>
       <r>    -4.4511     0.0000    12.0000 </r>
       <r>    -4.3719     0.0000    12.0000 </r>
       <r>    -4.2928     0.0000    12.0000 </r>
       <r>    -4.2137     0.0000    12.0000 </r>
       <r>    -4.1345     0.0000    12.0000 </r>
       <r>    -4.0554     0.0000    12.0000 </r>
       <r>    -3.9762     0.0000    12.0000 </r>
       <r>    -3.8971     0.0000    12.0000 </r>
       <r>    -3.8179     0.0000    12.0000 </r>
       <r>    -3.7388     0.0000    12.0000 </r>
       <r>    -3.6596     0.0000    12.0000 </r>
       <r>    -3.5805     0.0000    12.0000 </r>
       <r>    -3.5013     0.0000    12.0000 </r>
       <r>    -3.4222     0.0000    12.0000 </r>
       <r>    -3.3430     0.0000    12.0000 </r>
       <r>    -3.2639     0.0000    12.0000 </r>
       <r>    -3.1847     0.0000    12.0000 </r>
       <r>    -3.1056     0.0000    12.0000 </r>
       <r>    -3.0264     0.0000    12.0000 </r>
       <r>    -2.9473     0.0000    12.0000 </r>
       <r>    -2.8681     0.0000    12.0000 </r>
       <r>    -2.7890     0.0000    12.0000 </r>
       <r>    -2.7098     0.0000    12.0000 </r>
       <r>    -2.6307     0.0000    12.0000 </r>
       <r>    -2.5515     0.0000    12.0000 </r>
       <r>    -2.4724     0.0000    12.0000 </r>
       <r>    -2.3932     0.0000    12.0000 </r>
       <r>    -2.3141     0.0000    12.0000 </r>
       <r>    -2.2350     0.0000    12.0000 </r>
       <r>    -2.1558     0.0000    12.0000 </r>
       <r>    -2.0767     0.0000    12.0000 </r>
       <r>    -1.9975     0.0000    12.0000 </r>
       <r>    -1.9184     0.0000    12.0000 </r>
       <r>    -1.8392     0.0000    12.0000 </r>
       <r>    -1.7601     0.0000    12.0000 </r>
       <r>    -1.6809     0.0000    12.0000 </r>
       <r>    -1.6018     0.0000    12.0000 </r>
       <r>    -1.5226     0.0000    12.0000 </r>
       <r>    -1.4435     0.0000    12.0000 </r>
       <r>    -1.3643     0.0000    12.0000 </r>
       <r>    -1.2852     0.0002    12.0000 </r>
       <r>    -1.2060     0.0016    12.0001 </r>
       <r>    -1.1269     0.0133    12.0012 </r>
       <r>    -1.0477     0.0792    12.0075 </r>
       <r>    -0.9686     0.3520    12.0353 </r>
       <r>    -0.8894     1.1705    12.1280 </r>
       <r>    -0.8103     2.9411    12.3608 </r>
       <r>    -0.7311     5.6536    12.8082 </r>
       <r>    -0.6520     8.4324    13.4756 </r>
       <r>    -0.5728     9.8808    14.2577 </r>
       <r>    -0.4937     9.1517    14.9820 </r>
       <r>    -0.4145     6.6796    15.5107 </r>
       <r>    -0.3354     3.8008    15.8115 </r>
       <r>    -0.2562     1.6626    15.9431 </r>
       <r>    -0.1771     0.5517    15.9868 </r>
       <r>    -0.0980     0.1374    15.9977 </r>
       <r>    -0.0188     0.0255    15.9997 </r>
       <r>     0.0603     0.0035    16.0000 </r>
       <r>     0.1395     0.0004    16.0000 </r>
       <r>     0.2186     0.0000    16.0000 </r>
       <r>     0.2978     0.0000    16.0000 </r>
       <r>     0.3769     0.0000    16.0000 </r>
       <r>     0.4561     0.0000    16.0000 </r>
       <r>     0.5352     0.0000    16.0000 </r>
       <r>     0.6144     0.0001    16.0000 </r>
       <r>     0.6935     0.0011    16.0001 </r>
       <r>     0.7727     0.0096    16.0009 </r>
       <r>     0.8518     0.0643    16.0059 </r>
       <r>     0.9310     0.3175    16.0311 </r>
       <r>     1.0101     1.1647    16.1233 </r>
       <r>     1.0893     3.1760    16.3746 </r>
       <r>     1.1684     6.4420    16.8845 </r>
       <r>     1.2476     9.7257    17.6543 </r>
       <r>     1.3267    10.9333    18.5196 </r>
       <r>     1.4059     9.1530    19.2441 </r>
       <r>     1.4850     5.7053    19.6956 </r>
       <r>     1.5642     2.6467    19.9051 </r>
       <r>     1.6433     0.9132    19.9774 </r>
       <r>     1.7225     0.2341    19.9959 </r>
       <r>     1.8016     0.0446    19.9994 </r>
       <r>     1.8808     0.0063    19.9999 </r>
       <r>     1.9599     0.0007    20.0000 </r>
       <r>     2.0390     0.0001    20.0000 </r>
       <r>     2.1182     0.0000    20.0000 </r>
       <r>     2.1973     0.0000    20.0000 </r>
       <r>     2.2765     0.0000    20.0000 </r>
       <r>     2.3556     0.0000    20.0000 </r>
       <r>     2.4348     0.0000    20.0000 </r>
       <r>     2.5139     0.0000    20.0000 </r>
       <r>     2.5931     0.0000    20.0000 </r>
       <r>     2.6722     0.0000    20.0000 </r>
       <r>     2.7514     0.0000    20.0000 </r>
       <r>     2.8305     0.0000    20.0000 </r>
       <r>     2.9097     0.0000    20.0000 </r>
       <r>     2.9888     0.0000    20.0000 </r>
       <r>     3.0680     0.0000    20.0000 </r>
       <r>     3.1471     0.0000    20.0000 </r>
       <r>     3.2263     0.0000    20.0000 </r>
       <r>     3.3054     0.0000    20.0000 </r>
      </set>
     </set>
    </array>
   </total>
  </dos>
 </calculation>
 <structure name="finalpos" >
  <crystal>
   <varray name="basis" >
    <v>       8.00000000       0.00000000       0.00000000 </v>
    <v>       0.00000000       8.00000000       0.00000000 </v>
    <v>       0.00000000       0.00000000       8.00000000 </v>
   </varray>
   <i name="volume">    512.00000000 </i>
   <varray name="rec_basis" >
    <v>       0.12500000       0.00000000       0.00000000 </v>
    <v>       0.00000000       0.12500000       0.00000000 </v>
    <v>       0.00000000       0.00000000       0.12500000 </v>
   </varray>
  </crystal>
  <varray name="positions" >
   <v>       0.00000000       0.11683927       0.15560680 </v>
   <v>       0.00000000       0.88316073       0.15560680 </v>
   <v>       0.00000000       0.11683927       0.84439320 </v>
   <v>       0.00000000       0.88316073       0.84439320 </v>
   <v>       0.00000000       0.00000000       0.08360470 </v>
   <v>       0.00000000       0.00000000       0.91639530 </v>
  </varray>
 </structure>
</modeling>
