   5   5   0   0
  0.1024000E+03  0.8000000E-09  0.8000000E-09  0.8000000E-09  0.5000000E-15
  1.000000000000000E-004
  CAR 
 unknown system                          
      2.34798193    -25.09484076  301     -5.84714961      1.00000000
    -25.095  0.0000E+00  0.0000E+00
    -25.003  0.0000E+00  0.0000E+00
    -24.912  0.0000E+00  0.0000E+00
    -24.820  0.0000E+00  0.0000E+00
    -24.729 -0.5132E-27 -0.4695E-28
    -24.637 -0.6919E-24 -0.6334E-25
    -24.546 -0.6119E-21 -0.5604E-22
    -24.455 -0.3547E-18 -0.3250E-19
    -24.363 -0.1346E-15 -0.1235E-16
    -24.272 -0.3223E-13 -0.2960E-14
    -24.180 -0.5248E-11 -0.4831E-12
    -24.089 -0.5524E-09 -0.5102E-10
    -23.997 -0.3780E-07 -0.3509E-08
    -23.906 -0.1675E-05 -0.1567E-06
    -23.814 -0.4775E-04 -0.4525E-05
    -23.723 -0.8681E-03 -0.8393E-04
    -23.631 -0.9894E-02 -0.9890E-03
    -23.540 -0.6842E-01 -0.7248E-02
    -23.448 -0.2646E+00 -0.3145E-01
    -23.357 -0.4098E+00 -0.6894E-01
    -23.265  0.7041E+00 -0.4527E-02
    -23.174  0.4266E+01  0.3857E+00
    -23.082  0.7866E+01  0.1105E+01
    -22.991  0.7173E+01  0.1762E+01
    -22.899  0.3101E+01  0.2045E+01
    -22.808  0.1718E+00  0.2061E+01
    -22.716 -0.4217E+00  0.2022E+01
    -22.625 -0.1956E+00  0.2004E+01
    -22.534 -0.4256E-01  0.2001E+01
    -22.442 -0.5344E-02  0.2000E+01
    -22.351 -0.4119E-03  0.2000E+01
    -22.259 -0.2001E-04  0.2000E+01
    -22.168 -0.6219E-06  0.2000E+01
    -22.076 -0.1246E-07  0.2000E+01
    -21.985 -0.1619E-09  0.2000E+01
    -21.893 -0.1369E-11  0.2000E+01
    -21.802 -0.9709E-14  0.2000E+01
    -21.710  0.0000E+00  0.2000E+01
    -21.619  0.0000E+00  0.2000E+01
    -21.527 -0.1492E-27  0.2000E+01
    -21.436 -0.2294E-24  0.2000E+01
    -21.344 -0.2314E-21  0.2000E+01
    -21.253 -0.1530E-18  0.2000E+01
    -21.161 -0.6630E-16  0.2000E+01
    -21.070 -0.1880E-13  0.2000E+01
    -20.978 -0.3372E-11  0.2000E+01
    -20.887 -0.4061E-09  0.2000E+01
    -20.795 -0.3180E-07  0.2000E+01
    -20.704 -0.1614E-05  0.2000E+01
    -20.613 -0.5284E-04  0.2000E+01
    -20.521 -0.1107E-02  0.2000E+01
    -20.430 -0.1463E-01  0.1999E+01
    -20.338 -0.1189E+00  0.1988E+01
    -20.247 -0.5594E+00  0.1937E+01
    -20.155 -0.1255E+01  0.1822E+01
    -20.064  0.3348E+00  0.1852E+01
    -19.972  0.8823E+01  0.2660E+01
    -19.881  0.2114E+02  0.4594E+01
    -19.789  0.2381E+02  0.6772E+01
    -19.698  0.1331E+02  0.7990E+01
    -19.606  0.2393E+01  0.8209E+01
    -19.515 -0.1205E+01  0.8099E+01
    -19.423 -0.8250E+00  0.8023E+01
    -19.332 -0.2190E+00  0.8003E+01
    -19.240 -0.3233E-01  0.8000E+01
    -19.149 -0.2890E-02  0.8000E+01
    -19.057 -0.1619E-03  0.8000E+01
    -18.966 -0.5777E-05  0.8000E+01
    -18.874 -0.1326E-06  0.8000E+01
    -18.783 -0.1972E-08  0.8000E+01
    -18.692 -0.1904E-10  0.8000E+01
    -18.600 -0.1311E-12  0.8000E+01
    -18.509  0.0000E+00  0.8000E+01
    -18.417  0.0000E+00  0.8000E+01
    -18.326  0.0000E+00  0.8000E+01
    -18.234  0.0000E+00  0.8000E+01
    -18.143  0.0000E+00  0.8000E+01
    -18.051  0.0000E+00  0.8000E+01
    -17.960  0.0000E+00  0.8000E+01
    -17.868  0.0000E+00  0.8000E+01
    -17.777  0.0000E+00  0.8000E+01
    -17.685  0.0000E+00  0.8000E+01
    -17.594  0.0000E+00  0.8000E+01
    -17.502  0.0000E+00  0.8000E+01
    -17.411  0.0000E+00  0.8000E+01
    -17.319  0.0000E+00  0.8000E+01
    -17.228  0.0000E+00  0.8000E+01
    -17.136  0.0000E+00  0.8000E+01
    -17.045  0.0000E+00  0.8000E+01
    -16.953  0.0000E+00  0.8000E+01
    -16.862  0.0000E+00  0.8000E+01
    -16.771  0.0000E+00  0.8000E+01
    -16.679  0.0000E+00  0.8000E+01
    -16.588  0.0000E+00  0.8000E+01
    -16.496  0.0000E+00  0.8000E+01
    -16.405  0.0000E+00  0.8000E+01
    -16.313  0.0000E+00  0.8000E+01
    -16.222  0.0000E+00  0.8000E+01
    -16.130  0.0000E+00  0.8000E+01
    -16.039  0.0000E+00  0.8000E+01
    -15.947  0.0000E+00  0.8000E+01
    -15.856 -0.2665E-28  0.8000E+01
    -15.764 -0.4243E-25  0.8000E+01
    -15.673 -0.4432E-22  0.8000E+01
    -15.581 -0.3035E-19  0.8000E+01
    -15.490 -0.1361E-16  0.8000E+01
    -15.398 -0.3998E-14  0.8000E+01
    -15.307 -0.7434E-12  0.8000E+01
    -15.215 -0.9270E-10  0.8000E+01
    -15.124 -0.7520E-08  0.8000E+01
    -15.032 -0.3957E-06  0.8000E+01
    -14.941 -0.1344E-04  0.8000E+01
    -14.850 -0.2921E-03  0.8000E+01
    -14.758 -0.4014E-02  0.8000E+01
    -14.667 -0.3399E-01  0.7996E+01
    -14.575 -0.1680E+00  0.7981E+01
    -14.484 -0.4078E+00  0.7944E+01
    -14.392 -0.2443E-02  0.7944E+01
    -14.301  0.2614E+01  0.8183E+01
    -14.209  0.6768E+01  0.8802E+01
    -14.118  0.8063E+01  0.9539E+01
    -14.026  0.4799E+01  0.9978E+01
    -13.935  0.1008E+01  0.1007E+02
    -13.843 -0.3778E+00  0.1004E+02
    -13.752 -0.2970E+00  0.1001E+02
    -13.660 -0.8341E-01  0.1000E+02
    -13.569 -0.1287E-01  0.1000E+02
    -13.477 -0.1197E-02  0.1000E+02
    -13.386 -0.6962E-04  0.1000E+02
    -13.294 -0.2577E-05  0.1000E+02
    -13.203 -0.6135E-07  0.1000E+02
    -13.111 -0.9451E-09  0.1000E+02
    -13.020 -0.9462E-11  0.1000E+02
    -12.929 -0.6311E-13  0.1000E+02
    -12.837  0.0000E+00  0.1000E+02
    -12.746  0.0000E+00  0.1000E+02
    -12.654 -0.1901E-27  0.1000E+02
    -12.563 -0.2884E-24  0.1000E+02
    -12.471 -0.2870E-21  0.1000E+02
    -12.380 -0.1873E-18  0.1000E+02
    -12.288 -0.8002E-16  0.1000E+02
    -12.197 -0.2238E-13  0.1000E+02
    -12.105 -0.3963E-11  0.1000E+02
    -12.014 -0.4704E-09  0.1000E+02
    -11.922 -0.3632E-07  0.1000E+02
    -11.831 -0.1818E-05  0.1000E+02
    -11.739 -0.5868E-04  0.1000E+02
    -11.648 -0.1212E-02  0.1000E+02
    -11.556 -0.1577E-01  0.9998E+01
    -11.465 -0.1261E+00  0.9987E+01
    -11.373 -0.5819E+00  0.9934E+01
    -11.282 -0.1263E+01  0.9818E+01
    -11.190  0.4820E+00  0.9862E+01
    -11.099  0.9217E+01  0.1071E+02
    -11.008  0.2145E+02  0.1267E+02
    -10.916  0.2364E+02  0.1483E+02
    -10.825  0.1289E+02  0.1601E+02
    -10.733  0.2162E+01  0.1621E+02
    -10.642 -0.1225E+01  0.1610E+02
    -10.550 -0.7994E+00  0.1602E+02
    -10.459 -0.2077E+00  0.1600E+02
    -10.367 -0.3014E-01  0.1600E+02
    -10.276 -0.2654E-02  0.1600E+02
    -10.184 -0.1464E-03  0.1600E+02
    -10.093 -0.5152E-05  0.1600E+02
    -10.001 -0.1166E-06  0.1600E+02
     -9.910 -0.1710E-08  0.1600E+02
     -9.818 -0.1630E-10  0.1600E+02
     -9.727 -0.1019E-12  0.1600E+02
     -9.635  0.0000E+00  0.1600E+02
     -9.544  0.0000E+00  0.1600E+02
     -9.452  0.0000E+00  0.1600E+02
     -9.361  0.0000E+00  0.1600E+02
     -9.269 -0.1978E-28  0.1600E+02
     -9.178 -0.3327E-25  0.1600E+02
     -9.087 -0.3672E-22  0.1600E+02
     -8.995 -0.2656E-19  0.1600E+02
     -8.904 -0.1259E-16  0.1600E+02
     -8.812 -0.3907E-14  0.1600E+02
     -8.721 -0.7687E-12  0.1600E+02
     -8.629 -0.1013E-09  0.1600E+02
     -8.538 -0.8694E-08  0.1600E+02
     -8.446 -0.4841E-06  0.1600E+02
     -8.355 -0.1741E-04  0.1600E+02
     -8.263 -0.4014E-03  0.1600E+02
     -8.172 -0.5861E-02  0.1600E+02
     -8.080 -0.5298E-01  0.1599E+02
     -7.989 -0.2824E+00  0.1597E+02
     -7.897 -0.7687E+00  0.1590E+02
     -7.806 -0.2997E+00  0.1587E+02
     -7.714  0.4249E+01  0.1626E+02
     -7.623  0.1257E+02  0.1741E+02
     -7.531  0.1637E+02  0.1891E+02
     -7.440  0.1064E+02  0.1988E+02
     -7.348  0.2311E+01  0.2009E+02
     -7.257 -0.1818E+01  0.1993E+02
     -7.166 -0.9815E+00  0.1984E+02
     -7.074  0.6633E+01  0.2044E+02
     -6.983  0.1930E+02  0.2221E+02
     -6.891  0.2447E+02  0.2445E+02
     -6.800  0.1555E+02  0.2587E+02
     -6.708  0.3762E+01  0.2621E+02
     -6.617 -0.1030E+01  0.2612E+02
     -6.525 -0.1016E+01  0.2603E+02
     -6.434 -0.6128E+00  0.2597E+02
     -6.342 -0.1071E+01  0.2587E+02
     -6.251 -0.8933E+00  0.2579E+02
     -6.159  0.4512E+01  0.2620E+02
     -6.068  0.1661E+02  0.2772E+02
     -5.976  0.2462E+02  0.2997E+02
     -5.885  0.1838E+02  0.3166E+02
     -5.793  0.5944E+01  0.3220E+02
     -5.702 -0.5631E+00  0.3215E+02
     -5.610 -0.1127E+01  0.3204E+02
     -5.519 -0.4006E+00  0.3201E+02
     -5.427 -0.7346E-01  0.3200E+02
     -5.336 -0.7965E-02  0.3200E+02
     -5.245 -0.5354E-03  0.3200E+02
     -5.153 -0.2281E-04  0.3200E+02
     -5.062 -0.6231E-06  0.3200E+02
     -4.970 -0.1100E-07  0.3200E+02
     -4.879 -0.1260E-09  0.3200E+02
     -4.787 -0.9467E-12  0.3200E+02
     -4.696  0.0000E+00  0.3200E+02
     -4.604  0.0000E+00  0.3200E+02
     -4.513  0.0000E+00  0.3200E+02
     -4.421  0.0000E+00  0.3200E+02
     -4.330  0.0000E+00  0.3200E+02
     -4.238  0.0000E+00  0.3200E+02
     -4.147  0.0000E+00  0.3200E+02
     -4.055  0.0000E+00  0.3200E+02
     -3.964  0.0000E+00  0.3200E+02
     -3.872  0.0000E+00  0.3200E+02
     -3.781  0.0000E+00  0.3200E+02
     -3.689  0.0000E+00  0.3200E+02
     -3.598  0.0000E+00  0.3200E+02
     -3.506  0.0000E+00  0.3200E+02
     -3.415  0.0000E+00  0.3200E+02
     -3.324  0.0000E+00  0.3200E+02
     -3.232  0.0000E+00  0.3200E+02
     -3.141  0.0000E+00  0.3200E+02
     -3.049  0.0000E+00  0.3200E+02
     -2.958  0.0000E+00  0.3200E+02
     -2.866  0.0000E+00  0.3200E+02
     -2.775 -0.2455E-27  0.3200E+02
     -2.683 -0.3452E-24  0.3200E+02
     -2.592 -0.3183E-21  0.3200E+02
     -2.500 -0.1924E-18  0.3200E+02
     -2.409 -0.7616E-16  0.3200E+02
     -2.317 -0.1973E-13  0.3200E+02
     -2.226 -0.3231E-11  0.3200E+02
     -2.134 -0.3550E-09  0.3200E+02
     -2.043 -0.2535E-07  0.3200E+02
     -1.951 -0.1173E-05  0.3200E+02
     -1.860 -0.3495E-04  0.3200E+02
     -1.768 -0.6647E-03  0.3200E+02
     -1.677 -0.7944E-02  0.3200E+02
     -1.585 -0.5785E-01  0.3199E+02
     -1.494 -0.2386E+00  0.3197E+02
     -1.403 -0.4225E+00  0.3193E+02
     -1.311  0.4871E+00  0.3198E+02
     -1.220  0.3835E+01  0.3233E+02
     -1.128  0.7653E+01  0.3303E+02
     -1.037  0.7462E+01  0.3371E+02
     -0.945  0.3516E+01  0.3403E+02
     -0.854  0.3418E+00  0.3406E+02
     -0.762 -0.4253E+00  0.3403E+02
     -0.671 -0.2197E+00  0.3401E+02
     -0.579 -0.5082E-01  0.3400E+02
     -0.488 -0.6753E-02  0.3400E+02
     -0.396 -0.1378E-02  0.3400E+02
     -0.305 -0.1104E-01  0.3400E+02
     -0.213 -0.8992E-01  0.3399E+02
     -0.122 -0.4321E+00  0.3395E+02
     -0.030 -0.1038E+01  0.3386E+02
      0.061 -0.8945E-01  0.3385E+02
      0.153  0.6345E+01  0.3443E+02
      0.244  0.1742E+02  0.3602E+02
      0.336  0.2292E+02  0.3812E+02
      0.427  0.1643E+02  0.3962E+02
      0.518  0.5691E+01  0.4014E+02
      0.610 -0.1141E+00  0.4013E+02
      0.701 -0.9409E+00  0.4005E+02
      0.793 -0.4022E+00  0.4001E+02
      0.884 -0.8836E-01  0.4000E+02
      0.976 -0.1165E-01  0.4000E+02
      1.067 -0.9646E-03  0.4000E+02
      1.159 -0.5114E-04  0.4000E+02
      1.250 -0.1751E-05  0.4000E+02
      1.342 -0.3892E-07  0.4000E+02
      1.433 -0.5631E-09  0.4000E+02
      1.525 -0.5316E-11  0.4000E+02
      1.616 -0.3398E-13  0.4000E+02
      1.708  0.0000E+00  0.4000E+02
      1.799  0.0000E+00  0.4000E+02
      1.891  0.0000E+00  0.4000E+02
      1.982  0.0000E+00  0.4000E+02
      2.074  0.0000E+00  0.4000E+02
      2.165  0.0000E+00  0.4000E+02
      2.257  0.0000E+00  0.4000E+02
      2.348  0.0000E+00  0.4000E+02
