    5    5    1    1
  0.1024000E+03  0.8000000E-09  0.8000000E-09  0.8000000E-09  0.5000000E-15
  1.000000000000000E-004
  CAR 
 unknown system                          
   32    1   20
 
  0.0000000E+00  0.0000000E+00  0.0000000E+00  0.1000000E+01
   1      -23.094841
   2      -19.864646
   3      -19.864646
   4      -19.864646
   5      -14.185589
   6      -10.994408
   7      -10.994408
   8      -10.994408
   9       -7.587398
  10       -7.587398
  11       -6.950929
  12       -6.950929
  13       -6.950929
  14       -6.015526
  15       -6.015526
  16       -6.015526
  17       -1.131517
  18        0.256833
  19        0.256833
  20        0.347982
