       N       E                     dE             d eps       ncg     rms          rms(c)
DAV:   1     0.296572766046E+03    0.29657E+03   -0.84996E+03    40   0.825E+02
DAV:   2     0.467855503043E+02   -0.24979E+03   -0.24283E+03    56   0.190E+02
DAV:   3    -0.155207276170E+02   -0.62306E+02   -0.62065E+02    48   0.121E+02
DAV:   4    -0.175222316799E+02   -0.20015E+01   -0.19820E+01    48   0.283E+01
DAV:   5    -0.175825401864E+02   -0.60309E-01   -0.60268E-01    60   0.460E+00    0.447E+00
DAV:   6    -0.173352349540E+02    0.24731E+00   -0.24702E-01    44   0.299E+00    0.253E+00
DAV:   7    -0.172572819469E+02    0.77953E-01   -0.20449E-01    40   0.261E+00    0.456E-01
DAV:   8    -0.172576270614E+02   -0.34511E-03   -0.10853E-02    56   0.688E-01    0.185E-01
DAV:   9    -0.172587141588E+02   -0.10871E-02   -0.12177E-03    40   0.227E-01    0.576E-02
DAV:  10    -0.172597444522E+02   -0.10303E-02   -0.21870E-04    32   0.105E-01    0.173E-02
DAV:  11    -0.172604508286E+02   -0.70638E-03   -0.15056E-04    32   0.636E-02    0.158E-02
DAV:  12    -0.172611522701E+02   -0.70144E-03   -0.65871E-05    32   0.629E-02    0.747E-03
DAV:  13    -0.172612163908E+02   -0.64121E-04   -0.21977E-05    32   0.329E-02
   1 F= -.17261216E+02 E0= -.17272812E+02  d E =0.347874E-01
