<?xml version="1.0" encoding="ISO-8859-1"?>
<modeling>
 <generator>
  <i name="program" type="string">vasp </i>
  <i name="version" type="string">5.2.12  </i>
  <i name="subversion" type="string">11Nov11 complex                                                      parallel </i>
  <i name="platform" type="string">LinuxIFC </i>
  <i name="date" type="string">2012 10 31 </i>
  <i name="time" type="string">21:59:19 </i>
 </generator>
 <incar>
  <i type="string" name="PREC">normal</i>
  <i name="ENCUT">    350.00000000</i>
 </incar>
 <kpoints>
  <generation param="Monkhorst-Pack">
   <v type="int" name="divisions">       1        1        1 </v>
   <v name="usershift">      0.00000000       0.00000000       0.00000000 </v>
   <v name="genvec1">      1.00000000       0.00000000       0.00000000 </v>
   <v name="genvec2">      0.00000000       1.00000000       0.00000000 </v>
   <v name="genvec3">      0.00000000       0.00000000       1.00000000 </v>
   <v name="shift">      0.00000000       0.00000000       0.00000000 </v>
  </generation>
  <varray name="kpointlist" >
   <v>       0.00000000       0.00000000       0.00000000 </v>
  </varray>
  <varray name="weights" >
   <v>       1.00000000 </v>
  </varray>
 </kpoints>
 <parameters>
  <separator name="general" >
   <i type="string" name="SYSTEM">unknown system</i>
   <i type="logical" name="LCOMPAT"> F  </i>
  </separator>
  <separator name="electronic" >
   <i type="string" name="PREC">normal</i>
   <i name="ENMAX">    350.00000000</i>
   <i name="ENAUG">    644.87300000</i>
   <i name="EDIFF">      0.00010000</i>
   <i type="int" name="IALGO">    38</i>
   <i type="int" name="IWAVPR">    10</i>
   <i type="int" name="NBANDS">    20</i>
   <i name="NELECT">     32.00000000</i>
   <i type="int" name="TURBO">     0</i>
   <i type="int" name="IRESTART">     0</i>
   <i type="int" name="NREBOOT">     0</i>
   <i type="int" name="NMIN">     0</i>
   <i name="EREF">      0.00000000</i>
   <separator name="electronic smearing" >
    <i type="int" name="ISMEAR">     1</i>
    <i name="SIGMA">      0.20000000</i>
    <i name="KSPACING">      0.50000000</i>
    <i type="logical" name="KGAMMA"> T  </i>
   </separator>
   <separator name="electronic projectors" >
    <i type="logical" name="LREAL"> F  </i>
    <v name="ROPT">      0.00000000      0.00000000</v>
    <i type="int" name="LMAXPAW">  -100</i>
    <i type="int" name="LMAXMIX">     2</i>
    <i type="logical" name="NLSPLINE"> F  </i>
   </separator>
   <separator name="electronic startup" >
    <i type="int" name="ISTART">     0</i>
    <i type="int" name="ICHARG">     2</i>
    <i type="int" name="INIWAV">     1</i>
   </separator>
   <separator name="electronic spin" >
    <i type="int" name="ISPIN">     1</i>
    <i type="logical" name="LNONCOLLINEAR"> F  </i>
    <v name="MAGMOM">      1.00000000      1.00000000      1.00000000      1.00000000      1.00000000</v>
    <i name="NUPDOWN">     -1.00000000</i>
    <i type="logical" name="LSORBIT"> F  </i>
    <v name="SAXIS">      0.00000000      0.00000000      1.00000000</v>
    <i type="logical" name="LSPIRAL"> F  </i>
    <v name="QSPIRAL">      0.00000000      0.00000000      0.00000000</v>
    <i type="logical" name="LZEROZ"> F  </i>
   </separator>
   <separator name="electronic exchange-correlation" >
    <i type="logical" name="LASPH"> F  </i>
    <i type="logical" name="LMETAGGA"> F  </i>
   </separator>
   <separator name="electronic convergence" >
    <i type="int" name="NELM">    60</i>
    <i type="int" name="NELMDL">    -5</i>
    <i type="int" name="NELMIN">     2</i>
    <i name="ENINI">    350.00000000</i>
    <separator name="electronic convergence detail" >
     <i type="logical" name="LDIAG"> T  </i>
     <i type="logical" name="LSUBROT"> T  </i>
     <i name="WEIMIN">      0.00000000</i>
     <i name="EBREAK">      0.00000125</i>
     <i name="DEPER">      0.30000000</i>
     <i type="int" name="NRMM">     4</i>
     <i name="TIME">      0.40000000</i>
    </separator>
   </separator>
   <separator name="electronic mixer" >
    <i name="AMIX">      0.40000000</i>
    <i name="BMIX">      1.00000000</i>
    <i name="AMIN">      0.10000000</i>
    <i name="AMIX_MAG">      1.60000000</i>
    <i name="BMIX_MAG">      1.00000000</i>
    <separator name="electronic mixer details" >
     <i type="int" name="IMIX">     4</i>
     <i type="int" name="MAXMIX">   -45</i>
     <i name="WC">    100.00000000</i>
     <i type="int" name="INIMIX">     1</i>
     <i type="int" name="MIXPRE">     1</i>
     <i type="int" name="MREMOVE">     5</i>
    </separator>
   </separator>
   <separator name="electronic dipolcorrection" >
    <i type="logical" name="LDIPOL"> F  </i>
    <i type="logical" name="LMONO"> F  </i>
    <i type="int" name="IDIPOL">     0</i>
    <i name="EPSILON">      1.00000000</i>
    <v name="DIPOL">   -100.00000000   -100.00000000   -100.00000000</v>
    <i name="EFIELD">      0.00000000</i>
   </separator>
  </separator>
  <separator name="grids" >
   <i type="int" name="NGX">    40</i>
   <i type="int" name="NGY">    40</i>
   <i type="int" name="NGZ">    40</i>
   <i type="int" name="NGXF">    80</i>
   <i type="int" name="NGYF">    80</i>
   <i type="int" name="NGZF">    80</i>
   <i type="logical" name="ADDGRID"> F  </i>
  </separator>
  <separator name="ionic" >
   <i type="int" name="NSW">     0</i>
   <i type="int" name="IBRION">    -1</i>
   <i type="int" name="ISIF">     2</i>
   <i name="PSTRESS">      0.00000000</i>
   <i name="EDIFFG">      0.00100000</i>
   <i type="int" name="NFREE">     0</i>
   <i name="POTIM">      0.50000000</i>
   <i name="SMASS">     -3.00000000</i>
   <i name="SCALEE">      1.00000000</i>
  </separator>
  <separator name="ionic md" >
   <i name="TEBEG">      0.00010000</i>
   <i name="TEEND">      0.00010000</i>
   <i type="int" name="NBLOCK">     1</i>
   <i type="int" name="KBLOCK">     1</i>
   <i type="int" name="NPACO">   256</i>
   <i name="APACO">     16.00000000</i>
  </separator>
  <separator name="symmetry" >
   <i type="int" name="ISYM">     2</i>
   <i name="SYMPREC">      0.00001000</i>
  </separator>
  <separator name="dos" >
   <i type="logical" name="LORBIT"> F  </i>
   <v name="RWIGS">     -1.00000000     -1.00000000</v>
   <i type="int" name="NEDOS">   301</i>
   <i name="EMIN">     10.00000000</i>
   <i name="EMAX">    -10.00000000</i>
   <i name="EFERMI">      0.00000000</i>
  </separator>
  <separator name="writing" >
   <i type="int" name="NWRITE">     2</i>
   <i type="logical" name="LWAVE"> T  </i>
   <i type="logical" name="LCHARG"> T  </i>
   <i type="logical" name="LPARD"> F  </i>
   <i type="logical" name="LVTOT"> F  </i>
   <i type="logical" name="LVHAR"> F  </i>
   <i type="logical" name="LELF"> F  </i>
   <i type="logical" name="LOPTICS"> F  </i>
   <v name="STM">      0.00000000      0.00000000      0.00000000      0.00000000      0.00000000      0.00000000      0.00000000</v>
  </separator>
  <separator name="performance" >
   <i type="int" name="NPAR">     1</i>
   <i type="int" name="NSIM">     4</i>
   <i type="int" name="NBLK">    -1</i>
   <i type="logical" name="LPLANE"> T  </i>
   <i type="logical" name="LSCALAPACK"> F  </i>
   <i type="logical" name="LSCAAWARE"> F  </i>
   <i type="logical" name="LSCALU"> F  </i>
   <i type="logical" name="LASYNC"> F  </i>
   <i type="logical" name="LORBITALREAL"> F  </i>
  </separator>
  <separator name="miscellaneous" >
   <i type="int" name="IDIOT">     3</i>
   <i type="logical" name="LMUSIC"> F  </i>
   <v name="POMASS">     12.01100000     35.45300000</v>
   <v name="DARWINR">      0.00000000      0.00000000</v>
   <v name="DARWINV">      1.00000000      1.00000000</v>
   <i type="logical" name="LCORR"> T  </i>
  </separator>
  <i type="logical" name="GGA_COMPAT"> T  </i>
  <i type="logical" name="LBERRY"> F  </i>
  <i type="int" name="ICORELEVEL">     0</i>
  <i type="logical" name="LDAU"> F  </i>
  <i type="int" name="I_CONSTRAINED_M">     0</i>
  <separator name="electronic exchange-correlation" >
   <i type="string" name="GGA">--</i>
   <i type="int" name="VOSKOWN">     0</i>
   <i type="logical" name="LHFCALC"> F  </i>
   <i type="string" name="PRECFOCK"></i>
   <i type="logical" name="LHFONE"> F  </i>
   <i type="logical" name="LRHFCALC"> F  </i>
   <i type="logical" name="LTHOMAS"> F  </i>
   <i type="logical" name="LMODELHF"> F  </i>
   <i name="ENCUT4O">     -1.00000000</i>
   <i type="int" name="EXXOEP">     0</i>
   <i type="int" name="FOURORBIT">     0</i>
   <i name="AEXX">      0.00000000</i>
   <i name="HFALPHA">      0.00000000</i>
   <i name="ALDAX">      1.00000000</i>
   <i name="AGGAX">      1.00000000</i>
   <i name="ALDAC">      1.00000000</i>
   <i name="AGGAC">      1.00000000</i>
   <i type="int" name="NKREDX">     1</i>
   <i type="int" name="NKREDY">     1</i>
   <i type="int" name="NKREDZ">     1</i>
   <i type="logical" name="SHIFTRED"> F  </i>
   <i type="logical" name="ODDONLY"> F  </i>
   <i type="logical" name="EVENONLY"> F  </i>
   <i type="int" name="LMAXFOCK">     0</i>
   <i type="int" name="NMAXFOCKAE">     0</i>
   <i type="logical" name="LFOCKAEDFT"> F  </i>
   <i name="HFSCREEN">      0.00000000</i>
   <i name="HFSCREENC">      0.00000000</i>
  </separator>
  <separator name="vdW DFT" >
   <i type="logical" name="LUSE_VDW"> F  </i>
   <i name="Zab_VDW">     -0.84910000</i>
   <i name="PARAM1">      0.12340000</i>
   <i name="PARAM2">      1.00000000</i>
   <i name="PARAM3">      0.00000000</i>
  </separator>
  <separator name="model GW" >
   <i type="int" name="MODEL_GW">     0</i>
   <i name="MODEL_EPS0">     61.44000000</i>
   <i name="MODEL_ALPHA">      1.00000000</i>
  </separator>
  <separator name="linear response parameters" >
   <i type="logical" name="LEPSILON"> F  </i>
   <i type="logical" name="LRPA"> F  </i>
   <i type="logical" name="LNABLA"> F  </i>
   <i type="logical" name="LVEL"> F  </i>
   <i type="int" name="KINTER">     0</i>
   <i name="CSHIFT">      0.10000000</i>
   <i name="OMEGAMAX">     -1.00000000</i>
  </separator>
  <separator name="orbital magnetization" >
   <i type="logical" name="NUCIND"> F  </i>
   <v name="MAGPOS">      0.00000000      0.00000000      0.00000000</v>
   <i type="logical" name="LNICSALL"> T  </i>
   <i type="logical" name="ORBITALMAG"> F  </i>
   <i type="logical" name="LMAGBLOCH"> F  </i>
   <i type="logical" name="LCHIMAG"> F  </i>
   <i type="logical" name="LGAUGE"> T  </i>
   <i type="int" name="MAGATOM">     0</i>
   <v name="MAGDIPOL">      0.00000000      0.00000000      0.00000000</v>
   <v name="AVECCONST">      0.00000000      0.00000000      0.00000000</v>
  </separator>
  <separator name="response functions" >
   <i type="logical" name="LADDER"> F  </i>
   <i type="logical" name="LHARTREE"> T  </i>
   <i type="int" name="IBSE">     0</i>
   <i type="logical" name="LTCTE"> F  </i>
   <i type="logical" name="LTETE"> F  </i>
   <i type="logical" name="LFXCEPS"> F  </i>
   <i type="logical" name="L2ORDER"> F  </i>
   <i type="logical" name="LUSEW"> F  </i>
   <i name="ENCUTGW">     -2.00000000</i>
   <i name="ENCUTGWSOFT">     -2.00000000</i>
   <i name="ENCUTLF">     -1.00000000</i>
   <i type="int" name="LMAXMP2">    -1</i>
   <i name="SCISSOR">      0.00000000</i>
   <i type="int" name="NOMEGA">     0</i>
   <i type="int" name="NOMEGAR">     0</i>
   <i type="int" name="NBANDSGW">    -1</i>
   <i type="int" name="NBANDSO">    -1</i>
   <i type="int" name="NBANDSV">    -1</i>
   <i name="OPTEMAX">      0.00000000</i>
   <i type="int" name="NELM">     1</i>
   <i type="int" name="DIM">     3</i>
   <i type="int" name="ANTIRES">     0</i>
   <i name="OMEGAMAX">    -30.00000000</i>
   <i name="OMEGATL">   -200.00000000</i>
   <i type="int" name="OMEGAGRID">     0</i>
   <i name="CSHIFT">     -0.10000000</i>
   <i type="logical" name="SELFENERGY"> F  </i>
   <i type="logical" name="LSPECTRAL"> F  </i>
   <i type="logical" name="ODDONLYGW"> F  </i>
   <i type="logical" name="EVENONLYGW"> F  </i>
   <i type="int" name="NKREDLFX">     1</i>
   <i type="int" name="NKREDLFY">     1</i>
   <i type="int" name="NKREDLFZ">     1</i>
   <i type="int" name="MAXMEM">  1800</i>
   <i type="int" name="TELESCOPE">     0</i>
  </separator>
 </parameters>
 <atominfo>
  <atoms>       5 </atoms>
  <types>       2 </types>
  <array name="atoms" >
   <dimension dim="1">ion</dimension>
   <field type="string">element</field>
   <field type="int">atomtype</field>
   <set>
    <rc><c>C </c><c>   1</c></rc>
    <rc><c>Cl</c><c>   2</c></rc>
    <rc><c>Cl</c><c>   2</c></rc>
    <rc><c>Cl</c><c>   2</c></rc>
    <rc><c>Cl</c><c>   2</c></rc>
   </set>
  </array>
  <array name="atomtypes" >
   <dimension dim="1">type</dimension>
   <field type="int">atomspertype</field>
   <field type="string">element</field>
   <field>mass</field>
   <field>valence</field>
   <field type="string">pseudopotential</field>
   <set>
    <rc><c>   1</c><c>C </c><c>     12.01100000</c><c>      4.00000000</c><c> PAW_PBE C 08Apr2002                    </c></rc>
    <rc><c>   4</c><c>Cl</c><c>     35.45300000</c><c>      7.00000000</c><c>  PAW_PBE Cl 17Jan2003                  </c></rc>
   </set>
  </array>
 </atominfo>
 <structure name="initialpos" >
  <crystal>
   <varray name="basis" >
    <v>       8.00000000       0.00000000       0.00000000 </v>
    <v>       0.00000000       8.00000000       0.00000000 </v>
    <v>       0.00000000       0.00000000       8.00000000 </v>
   </varray>
   <i name="volume">    512.00000000 </i>
   <varray name="rec_basis" >
    <v>       0.12500000       0.00000000       0.00000000 </v>
    <v>       0.00000000       0.12500000       0.00000000 </v>
    <v>       0.00000000       0.00000000       0.12500000 </v>
   </varray>
  </crystal>
  <varray name="positions" >
   <v>       0.50000000       0.50000000       0.50000000 </v>
   <v>       0.62766750       0.62766750       0.62766750 </v>
   <v>       0.37233250       0.37233250       0.62766750 </v>
   <v>       0.37233250       0.62766750       0.37233250 </v>
   <v>       0.62766750       0.37233250       0.37233250 </v>
  </varray>
 </structure>
 <calculation>
  <scstep>
   <time name="dav">    0.76    0.77</time>
   <time name="total">    1.60    1.60</time>
   <energy>
    <i name="alphaZ">      8.81598031 </i>
    <i name="ewald">    -81.24181609 </i>
    <i name="hartreedc">  -1444.11011375 </i>
    <i name="XCdc">     93.80984892 </i>
    <i name="pawpsdc">    831.83787413 </i>
    <i name="pawaedc">   -833.44360687 </i>
    <i name="eentropy">      0.01567942 </i>
    <i name="bandstr">    -65.04341607 </i>
    <i name="atom">   1785.93233605 </i>
    <i name="e_fr_energy">    296.57276605 </i>
    <i name="e_wo_entrp">    296.55708663 </i>
    <i name="e_0_energy">    296.56753957 </i>
   </energy>
  </scstep>
  <scstep>
   <time name="dav">    0.95    0.95</time>
   <time name="total">    0.95    1.02</time>
   <energy>
    <i name="e_fr_energy">     46.78555030 </i>
    <i name="e_wo_entrp">     46.77395449 </i>
    <i name="e_0_energy">     46.78168503 </i>
   </energy>
  </scstep>
  <scstep>
   <time name="dav">    0.84    0.85</time>
   <time name="total">    0.85    0.86</time>
   <energy>
    <i name="e_fr_energy">    -15.52072762 </i>
    <i name="e_wo_entrp">    -15.56163979 </i>
    <i name="e_0_energy">    -15.53436501 </i>
   </energy>
  </scstep>
  <scstep>
   <time name="dav">    0.84    0.84</time>
   <time name="total">    0.84    0.86</time>
   <energy>
    <i name="e_fr_energy">    -17.52223168 </i>
    <i name="e_wo_entrp">    -17.55702592 </i>
    <i name="e_0_energy">    -17.53382976 </i>
   </energy>
  </scstep>
  <scstep>
   <time name="dav">    0.99    0.99</time>
   <time name="total">    1.17    1.19</time>
   <energy>
    <i name="e_fr_energy">    -17.58254019 </i>
    <i name="e_wo_entrp">    -17.61732762 </i>
    <i name="e_0_energy">    -17.59413600 </i>
   </energy>
  </scstep>
  <scstep>
   <time name="dav">    0.79    0.79</time>
   <time name="total">    1.79    1.80</time>
   <energy>
    <i name="e_fr_energy">    -17.33523495 </i>
    <i name="e_wo_entrp">    -17.37002239 </i>
    <i name="e_0_energy">    -17.34683076 </i>
   </energy>
  </scstep>
  <scstep>
   <time name="dav">    0.75    0.75</time>
   <time name="total">    1.74    1.75</time>
   <energy>
    <i name="e_fr_energy">    -17.25728195 </i>
    <i name="e_wo_entrp">    -17.29206938 </i>
    <i name="e_0_energy">    -17.26887776 </i>
   </energy>
  </scstep>
  <scstep>
   <time name="dav">    0.95    0.95</time>
   <time name="total">    1.95    2.02</time>
   <energy>
    <i name="e_fr_energy">    -17.25762706 </i>
    <i name="e_wo_entrp">    -17.29241449 </i>
    <i name="e_0_energy">    -17.26922287 </i>
   </energy>
  </scstep>
  <scstep>
   <time name="dav">    0.72    0.72</time>
   <time name="total">    1.71    1.72</time>
   <energy>
    <i name="e_fr_energy">    -17.25871416 </i>
    <i name="e_wo_entrp">    -17.29350159 </i>
    <i name="e_0_energy">    -17.27030997 </i>
   </energy>
  </scstep>
  <scstep>
   <time name="dav">    0.63    0.63</time>
   <time name="total">    1.61    1.70</time>
   <energy>
    <i name="e_fr_energy">    -17.25974445 </i>
    <i name="e_wo_entrp">    -17.29453188 </i>
    <i name="e_0_energy">    -17.27134026 </i>
   </energy>
  </scstep>
  <scstep>
   <time name="dav">    0.63    0.63</time>
   <time name="total">    1.62    1.63</time>
   <energy>
    <i name="e_fr_energy">    -17.26045083 </i>
    <i name="e_wo_entrp">    -17.29523826 </i>
    <i name="e_0_energy">    -17.27204664 </i>
   </energy>
  </scstep>
  <scstep>
   <time name="dav">    0.63    0.63</time>
   <time name="total">    1.62    1.67</time>
   <energy>
    <i name="e_fr_energy">    -17.26115227 </i>
    <i name="e_wo_entrp">    -17.29593970 </i>
    <i name="e_0_energy">    -17.27274808 </i>
   </energy>
  </scstep>
  <scstep>
   <time name="dav">    0.64    0.64</time>
   <time name="total">    1.45    1.46</time>
   <energy>
    <i name="alphaZ">      8.81598031 </i>
    <i name="ewald">    -81.24181609 </i>
    <i name="hartreedc">  -1455.54484340 </i>
    <i name="XCdc">     94.72732065 </i>
    <i name="pawpsdc">    904.76099411 </i>
    <i name="pawaedc">   -906.88246790 </i>
    <i name="eentropy">      0.03478743 </i>
    <i name="bandstr">   -367.86350755 </i>
    <i name="atom">   1785.93233605 </i>
    <i name="e_fr_energy">    -17.26121639 </i>
    <i name="e_wo_entrp">    -17.29600382 </i>
    <i name="e_0_energy">    -17.27281220 </i>
   </energy>
  </scstep>
  <parameters_embedded>
   <separator name="dft+d2" >
    <i type="logical" name="LVDW"> F  </i>
   </separator>
  </parameters_embedded>
  <structure>
   <crystal>
    <varray name="basis" >
     <v>       8.00000000       0.00000000       0.00000000 </v>
     <v>       0.00000000       8.00000000       0.00000000 </v>
     <v>       0.00000000       0.00000000       8.00000000 </v>
    </varray>
    <i name="volume">    512.00000000 </i>
    <varray name="rec_basis" >
     <v>       0.12500000       0.00000000       0.00000000 </v>
     <v>       0.00000000       0.12500000       0.00000000 </v>
     <v>       0.00000000       0.00000000       0.12500000 </v>
    </varray>
   </crystal>
   <varray name="positions" >
    <v>       0.50000000       0.50000000       0.50000000 </v>
    <v>       0.62766750       0.62766750       0.62766750 </v>
    <v>       0.37233250       0.37233250       0.62766750 </v>
    <v>       0.37233250       0.62766750       0.37233250 </v>
    <v>       0.62766750       0.37233250       0.37233250 </v>
   </varray>
  </structure>
  <varray name="forces" >
   <v>       0.00000000       0.00000000       0.00000000 </v>
   <v>       0.10998137       0.10998137       0.10998137 </v>
   <v>      -0.10998137      -0.10998137       0.10998137 </v>
   <v>      -0.10998137       0.10998137      -0.10998137 </v>
   <v>       0.10998137      -0.10998137      -0.10998137 </v>
  </varray>
  <varray name="stress" >
   <v>       0.01466264       0.00000000       0.00000000 </v>
   <v>       0.00000000       0.01466264       0.00000000 </v>
   <v>       0.00000000       0.00000000       0.01466264 </v>
  </varray>
  <energy>
   <i name="e_fr_energy">    -17.26121639 </i>
   <i name="e_wo_entrp">    -17.27281220 </i>
   <i name="e_0_energy">      0.03478743 </i>
  </energy>
  <time name="totalsc">   22.56   23.33</time>
  <eigenvalues>
   <array>
    <dimension dim="1">band</dimension>
    <dimension dim="2">kpoint</dimension>
    <dimension dim="3">spin</dimension>
    <field>eigene</field>
    <field>occ</field>
    <set>
     <set comment="spin 1">
      <set comment="kpoint 1">
       <r>  -23.0948    1.0000 </r>
       <r>  -19.8646    1.0000 </r>
       <r>  -19.8646    1.0000 </r>
       <r>  -19.8646    1.0000 </r>
       <r>  -14.1856    1.0000 </r>
       <r>  -10.9944    1.0000 </r>
       <r>  -10.9944    1.0000 </r>
       <r>  -10.9944    1.0000 </r>
       <r>   -7.5874    1.0000 </r>
       <r>   -7.5874    1.0000 </r>
       <r>   -6.9509    1.0000 </r>
       <r>   -6.9509    1.0000 </r>
       <r>   -6.9509    1.0000 </r>
       <r>   -6.0155    1.0000 </r>
       <r>   -6.0155    1.0000 </r>
       <r>   -6.0155    1.0000 </r>
       <r>   -1.1315    0.0000 </r>
       <r>    0.2568    0.0000 </r>
       <r>    0.2568    0.0000 </r>
       <r>    0.3480    0.0000 </r>
      </set>
     </set>
    </set>
   </array>
  </eigenvalues>
  <separator name="orbital magnetization" >
   <v name="MAGDIPOLOUT">      0.00000000      0.00000000      0.00000000</v>
  </separator>
  <dos>
   <i name="efermi">     -5.84714961 </i>
   <total>
    <array>
     <dimension dim="1">gridpoints</dimension>
     <dimension dim="2">spin</dimension>
     <field>energy</field>
     <field>total</field>
     <field>integrated</field>
     <set>
      <set comment="spin 1">
       <r>   -25.0948     0.0000     0.0000 </r>
       <r>   -25.0034     0.0000     0.0000 </r>
       <r>   -24.9119     0.0000     0.0000 </r>
       <r>   -24.8204     0.0000     0.0000 </r>
       <r>   -24.7289     0.0000     0.0000 </r>
       <r>   -24.6375     0.0000     0.0000 </r>
       <r>   -24.5460     0.0000     0.0000 </r>
       <r>   -24.4545     0.0000     0.0000 </r>
       <r>   -24.3630     0.0000     0.0000 </r>
       <r>   -24.2716     0.0000     0.0000 </r>
       <r>   -24.1801     0.0000     0.0000 </r>
       <r>   -24.0886     0.0000     0.0000 </r>
       <r>   -23.9971     0.0000     0.0000 </r>
       <r>   -23.9057     0.0000     0.0000 </r>
       <r>   -23.8142     0.0000     0.0000 </r>
       <r>   -23.7227    -0.0009    -0.0001 </r>
       <r>   -23.6312    -0.0099    -0.0010 </r>
       <r>   -23.5397    -0.0684    -0.0072 </r>
       <r>   -23.4483    -0.2646    -0.0315 </r>
       <r>   -23.3568    -0.4098    -0.0689 </r>
       <r>   -23.2653     0.7041    -0.0045 </r>
       <r>   -23.1738     4.2664     0.3857 </r>
       <r>   -23.0824     7.8664     1.1053 </r>
       <r>   -22.9909     7.1731     1.7615 </r>
       <r>   -22.8994     3.1011     2.0452 </r>
       <r>   -22.8079     0.1718     2.0609 </r>
       <r>   -22.7165    -0.4217     2.0223 </r>
       <r>   -22.6250    -0.1956     2.0044 </r>
       <r>   -22.5335    -0.0426     2.0005 </r>
       <r>   -22.4420    -0.0053     2.0000 </r>
       <r>   -22.3506    -0.0004     2.0000 </r>
       <r>   -22.2591     0.0000     2.0000 </r>
       <r>   -22.1676     0.0000     2.0000 </r>
       <r>   -22.0761     0.0000     2.0000 </r>
       <r>   -21.9847     0.0000     2.0000 </r>
       <r>   -21.8932     0.0000     2.0000 </r>
       <r>   -21.8017     0.0000     2.0000 </r>
       <r>   -21.7102     0.0000     2.0000 </r>
       <r>   -21.6187     0.0000     2.0000 </r>
       <r>   -21.5273     0.0000     2.0000 </r>
       <r>   -21.4358     0.0000     2.0000 </r>
       <r>   -21.3443     0.0000     2.0000 </r>
       <r>   -21.2528     0.0000     2.0000 </r>
       <r>   -21.1614     0.0000     2.0000 </r>
       <r>   -21.0699     0.0000     2.0000 </r>
       <r>   -20.9784     0.0000     2.0000 </r>
       <r>   -20.8869     0.0000     2.0000 </r>
       <r>   -20.7955     0.0000     2.0000 </r>
       <r>   -20.7040     0.0000     2.0000 </r>
       <r>   -20.6125    -0.0001     2.0000 </r>
       <r>   -20.5210    -0.0011     1.9999 </r>
       <r>   -20.4296    -0.0146     1.9986 </r>
       <r>   -20.3381    -0.1189     1.9877 </r>
       <r>   -20.2466    -0.5594     1.9365 </r>
       <r>   -20.1551    -1.2547     1.8217 </r>
       <r>   -20.0637     0.3348     1.8524 </r>
       <r>   -19.9722     8.8235     2.6595 </r>
       <r>   -19.8807    21.1449     4.5938 </r>
       <r>   -19.7892    23.8137     6.7721 </r>
       <r>   -19.6978    13.3144     7.9901 </r>
       <r>   -19.6063     2.3926     8.2090 </r>
       <r>   -19.5148    -1.2048     8.0987 </r>
       <r>   -19.4233    -0.8250     8.0233 </r>
       <r>   -19.3318    -0.2190     8.0032 </r>
       <r>   -19.2404    -0.0323     8.0003 </r>
       <r>   -19.1489    -0.0029     8.0000 </r>
       <r>   -19.0574    -0.0002     8.0000 </r>
       <r>   -18.9659     0.0000     8.0000 </r>
       <r>   -18.8745     0.0000     8.0000 </r>
       <r>   -18.7830     0.0000     8.0000 </r>
       <r>   -18.6915     0.0000     8.0000 </r>
       <r>   -18.6000     0.0000     8.0000 </r>
       <r>   -18.5086     0.0000     8.0000 </r>
       <r>   -18.4171     0.0000     8.0000 </r>
       <r>   -18.3256     0.0000     8.0000 </r>
       <r>   -18.2341     0.0000     8.0000 </r>
       <r>   -18.1427     0.0000     8.0000 </r>
       <r>   -18.0512     0.0000     8.0000 </r>
       <r>   -17.9597     0.0000     8.0000 </r>
       <r>   -17.8682     0.0000     8.0000 </r>
       <r>   -17.7768     0.0000     8.0000 </r>
       <r>   -17.6853     0.0000     8.0000 </r>
       <r>   -17.5938     0.0000     8.0000 </r>
       <r>   -17.5023     0.0000     8.0000 </r>
       <r>   -17.4109     0.0000     8.0000 </r>
       <r>   -17.3194     0.0000     8.0000 </r>
       <r>   -17.2279     0.0000     8.0000 </r>
       <r>   -17.1364     0.0000     8.0000 </r>
       <r>   -17.0449     0.0000     8.0000 </r>
       <r>   -16.9535     0.0000     8.0000 </r>
       <r>   -16.8620     0.0000     8.0000 </r>
       <r>   -16.7705     0.0000     8.0000 </r>
       <r>   -16.6790     0.0000     8.0000 </r>
       <r>   -16.5876     0.0000     8.0000 </r>
       <r>   -16.4961     0.0000     8.0000 </r>
       <r>   -16.4046     0.0000     8.0000 </r>
       <r>   -16.3131     0.0000     8.0000 </r>
       <r>   -16.2217     0.0000     8.0000 </r>
       <r>   -16.1302     0.0000     8.0000 </r>
       <r>   -16.0387     0.0000     8.0000 </r>
       <r>   -15.9472     0.0000     8.0000 </r>
       <r>   -15.8558     0.0000     8.0000 </r>
       <r>   -15.7643     0.0000     8.0000 </r>
       <r>   -15.6728     0.0000     8.0000 </r>
       <r>   -15.5813     0.0000     8.0000 </r>
       <r>   -15.4899     0.0000     8.0000 </r>
       <r>   -15.3984     0.0000     8.0000 </r>
       <r>   -15.3069     0.0000     8.0000 </r>
       <r>   -15.2154     0.0000     8.0000 </r>
       <r>   -15.1239     0.0000     8.0000 </r>
       <r>   -15.0325     0.0000     8.0000 </r>
       <r>   -14.9410     0.0000     8.0000 </r>
       <r>   -14.8495    -0.0003     8.0000 </r>
       <r>   -14.7580    -0.0040     7.9996 </r>
       <r>   -14.6666    -0.0340     7.9965 </r>
       <r>   -14.5751    -0.1680     7.9811 </r>
       <r>   -14.4836    -0.4078     7.9438 </r>
       <r>   -14.3921    -0.0024     7.9436 </r>
       <r>   -14.3007     2.6137     8.1827 </r>
       <r>   -14.2092     6.7683     8.8018 </r>
       <r>   -14.1177     8.0630     9.5394 </r>
       <r>   -14.0262     4.7995     9.9784 </r>
       <r>   -13.9348     1.0082    10.0707 </r>
       <r>   -13.8433    -0.3778    10.0361 </r>
       <r>   -13.7518    -0.2970    10.0089 </r>
       <r>   -13.6603    -0.0834    10.0013 </r>
       <r>   -13.5689    -0.0129    10.0001 </r>
       <r>   -13.4774    -0.0012    10.0000 </r>
       <r>   -13.3859    -0.0001    10.0000 </r>
       <r>   -13.2944     0.0000    10.0000 </r>
       <r>   -13.2030     0.0000    10.0000 </r>
       <r>   -13.1115     0.0000    10.0000 </r>
       <r>   -13.0200     0.0000    10.0000 </r>
       <r>   -12.9285     0.0000    10.0000 </r>
       <r>   -12.8370     0.0000    10.0000 </r>
       <r>   -12.7456     0.0000    10.0000 </r>
       <r>   -12.6541     0.0000    10.0000 </r>
       <r>   -12.5626     0.0000    10.0000 </r>
       <r>   -12.4711     0.0000    10.0000 </r>
       <r>   -12.3797     0.0000    10.0000 </r>
       <r>   -12.2882     0.0000    10.0000 </r>
       <r>   -12.1967     0.0000    10.0000 </r>
       <r>   -12.1052     0.0000    10.0000 </r>
       <r>   -12.0138     0.0000    10.0000 </r>
       <r>   -11.9223     0.0000    10.0000 </r>
       <r>   -11.8308     0.0000    10.0000 </r>
       <r>   -11.7393    -0.0001    10.0000 </r>
       <r>   -11.6479    -0.0012     9.9999 </r>
       <r>   -11.5564    -0.0158     9.9984 </r>
       <r>   -11.4649    -0.1261     9.9869 </r>
       <r>   -11.3734    -0.5819     9.9337 </r>
       <r>   -11.2820    -1.2634     9.8181 </r>
       <r>   -11.1905     0.4820     9.8622 </r>
       <r>   -11.0990     9.2165    10.7053 </r>
       <r>   -11.0075    21.4533    12.6678 </r>
       <r>   -10.9160    23.6394    14.8302 </r>
       <r>   -10.8246    12.8917    16.0095 </r>
       <r>   -10.7331     2.1617    16.2072 </r>
       <r>   -10.6416    -1.2254    16.0951 </r>
       <r>   -10.5501    -0.7994    16.0220 </r>
       <r>   -10.4587    -0.2077    16.0030 </r>
       <r>   -10.3672    -0.0301    16.0003 </r>
       <r>   -10.2757    -0.0027    16.0000 </r>
       <r>   -10.1842    -0.0001    16.0000 </r>
       <r>   -10.0928     0.0000    16.0000 </r>
       <r>   -10.0013     0.0000    16.0000 </r>
       <r>    -9.9098     0.0000    16.0000 </r>
       <r>    -9.8183     0.0000    16.0000 </r>
       <r>    -9.7269     0.0000    16.0000 </r>
       <r>    -9.6354     0.0000    16.0000 </r>
       <r>    -9.5439     0.0000    16.0000 </r>
       <r>    -9.4524     0.0000    16.0000 </r>
       <r>    -9.3610     0.0000    16.0000 </r>
       <r>    -9.2695     0.0000    16.0000 </r>
       <r>    -9.1780     0.0000    16.0000 </r>
       <r>    -9.0865     0.0000    16.0000 </r>
       <r>    -8.9951     0.0000    16.0000 </r>
       <r>    -8.9036     0.0000    16.0000 </r>
       <r>    -8.8121     0.0000    16.0000 </r>
       <r>    -8.7206     0.0000    16.0000 </r>
       <r>    -8.6291     0.0000    16.0000 </r>
       <r>    -8.5377     0.0000    16.0000 </r>
       <r>    -8.4462     0.0000    16.0000 </r>
       <r>    -8.3547     0.0000    16.0000 </r>
       <r>    -8.2632    -0.0004    16.0000 </r>
       <r>    -8.1718    -0.0059    15.9994 </r>
       <r>    -8.0803    -0.0530    15.9946 </r>
       <r>    -7.9888    -0.2824    15.9687 </r>
       <r>    -7.8973    -0.7687    15.8984 </r>
       <r>    -7.8059    -0.2997    15.8710 </r>
       <r>    -7.7144     4.2489    16.2597 </r>
       <r>    -7.6229    12.5669    17.4093 </r>
       <r>    -7.5314    16.3664    18.9064 </r>
       <r>    -7.4400    10.6425    19.8799 </r>
       <r>    -7.3485     2.3113    20.0914 </r>
       <r>    -7.2570    -1.8179    19.9251 </r>
       <r>    -7.1655    -0.9815    19.8353 </r>
       <r>    -7.0741     6.6327    20.4420 </r>
       <r>    -6.9826    19.3042    22.2079 </r>
       <r>    -6.8911    24.4690    24.4462 </r>
       <r>    -6.7996    15.5475    25.8684 </r>
       <r>    -6.7081     3.7624    26.2126 </r>
       <r>    -6.6167    -1.0304    26.1183 </r>
       <r>    -6.5252    -1.0163    26.0254 </r>
       <r>    -6.4337    -0.6128    25.9693 </r>
       <r>    -6.3422    -1.0714    25.8713 </r>
       <r>    -6.2508    -0.8933    25.7896 </r>
       <r>    -6.1593     4.5119    26.2023 </r>
       <r>    -6.0678    16.6062    27.7214 </r>
       <r>    -5.9763    24.6246    29.9740 </r>
       <r>    -5.8849    18.3769    31.6550 </r>
       <r>    -5.7934     5.9442    32.1988 </r>
       <r>    -5.7019    -0.5631    32.1473 </r>
       <r>    -5.6104    -1.1273    32.0441 </r>
       <r>    -5.5190    -0.4006    32.0075 </r>
       <r>    -5.4275    -0.0735    32.0008 </r>
       <r>    -5.3360    -0.0080    32.0001 </r>
       <r>    -5.2445    -0.0005    32.0000 </r>
       <r>    -5.1531     0.0000    32.0000 </r>
       <r>    -5.0616     0.0000    32.0000 </r>
       <r>    -4.9701     0.0000    32.0000 </r>
       <r>    -4.8786     0.0000    32.0000 </r>
       <r>    -4.7872     0.0000    32.0000 </r>
       <r>    -4.6957     0.0000    32.0000 </r>
       <r>    -4.6042     0.0000    32.0000 </r>
       <r>    -4.5127     0.0000    32.0000 </r>
       <r>    -4.4212     0.0000    32.0000 </r>
       <r>    -4.3298     0.0000    32.0000 </r>
       <r>    -4.2383     0.0000    32.0000 </r>
       <r>    -4.1468     0.0000    32.0000 </r>
       <r>    -4.0553     0.0000    32.0000 </r>
       <r>    -3.9639     0.0000    32.0000 </r>
       <r>    -3.8724     0.0000    32.0000 </r>
       <r>    -3.7809     0.0000    32.0000 </r>
       <r>    -3.6894     0.0000    32.0000 </r>
       <r>    -3.5980     0.0000    32.0000 </r>
       <r>    -3.5065     0.0000    32.0000 </r>
       <r>    -3.4150     0.0000    32.0000 </r>
       <r>    -3.3235     0.0000    32.0000 </r>
       <r>    -3.2321     0.0000    32.0000 </r>
       <r>    -3.1406     0.0000    32.0000 </r>
       <r>    -3.0491     0.0000    32.0000 </r>
       <r>    -2.9576     0.0000    32.0000 </r>
       <r>    -2.8662     0.0000    32.0000 </r>
       <r>    -2.7747     0.0000    32.0000 </r>
       <r>    -2.6832     0.0000    32.0000 </r>
       <r>    -2.5917     0.0000    32.0000 </r>
       <r>    -2.5003     0.0000    32.0000 </r>
       <r>    -2.4088     0.0000    32.0000 </r>
       <r>    -2.3173     0.0000    32.0000 </r>
       <r>    -2.2258     0.0000    32.0000 </r>
       <r>    -2.1343     0.0000    32.0000 </r>
       <r>    -2.0429     0.0000    32.0000 </r>
       <r>    -1.9514     0.0000    32.0000 </r>
       <r>    -1.8599     0.0000    32.0000 </r>
       <r>    -1.7684    -0.0007    31.9999 </r>
       <r>    -1.6770    -0.0079    31.9992 </r>
       <r>    -1.5855    -0.0579    31.9939 </r>
       <r>    -1.4940    -0.2386    31.9721 </r>
       <r>    -1.4025    -0.4225    31.9334 </r>
       <r>    -1.3111     0.4871    31.9780 </r>
       <r>    -1.2196     3.8350    32.3288 </r>
       <r>    -1.1281     7.6526    33.0288 </r>
       <r>    -1.0366     7.4622    33.7115 </r>
       <r>    -0.9452     3.5156    34.0331 </r>
       <r>    -0.8537     0.3418    34.0643 </r>
       <r>    -0.7622    -0.4253    34.0254 </r>
       <r>    -0.6707    -0.2197    34.0053 </r>
       <r>    -0.5793    -0.0508    34.0007 </r>
       <r>    -0.4878    -0.0068    34.0000 </r>
       <r>    -0.3963    -0.0014    33.9999 </r>
       <r>    -0.3048    -0.0110    33.9989 </r>
       <r>    -0.2133    -0.0899    33.9907 </r>
       <r>    -0.1219    -0.4321    33.9512 </r>
       <r>    -0.0304    -1.0384    33.8562 </r>
       <r>     0.0611    -0.0894    33.8480 </r>
       <r>     0.1526     6.3445    34.4284 </r>
       <r>     0.2440    17.4250    36.0223 </r>
       <r>     0.3355    22.9196    38.1189 </r>
       <r>     0.4270    16.4306    39.6219 </r>
       <r>     0.5185     5.6913    40.1425 </r>
       <r>     0.6099    -0.1141    40.1321 </r>
       <r>     0.7014    -0.9409    40.0460 </r>
       <r>     0.7929    -0.4022    40.0092 </r>
       <r>     0.8844    -0.0884    40.0012 </r>
       <r>     0.9758    -0.0116    40.0001 </r>
       <r>     1.0673    -0.0010    40.0000 </r>
       <r>     1.1588    -0.0001    40.0000 </r>
       <r>     1.2503     0.0000    40.0000 </r>
       <r>     1.3417     0.0000    40.0000 </r>
       <r>     1.4332     0.0000    40.0000 </r>
       <r>     1.5247     0.0000    40.0000 </r>
       <r>     1.6162     0.0000    40.0000 </r>
       <r>     1.7076     0.0000    40.0000 </r>
       <r>     1.7991     0.0000    40.0000 </r>
       <r>     1.8906     0.0000    40.0000 </r>
       <r>     1.9821     0.0000    40.0000 </r>
       <r>     2.0736     0.0000    40.0000 </r>
       <r>     2.1650     0.0000    40.0000 </r>
       <r>     2.2565     0.0000    40.0000 </r>
       <r>     2.3480     0.0000    40.0000 </r>
      </set>
     </set>
    </array>
   </total>
  </dos>
 </calculation>
 <structure name="finalpos" >
  <crystal>
   <varray name="basis" >
    <v>       8.00000000       0.00000000       0.00000000 </v>
    <v>       0.00000000       8.00000000       0.00000000 </v>
    <v>       0.00000000       0.00000000       8.00000000 </v>
   </varray>
   <i name="volume">    512.00000000 </i>
   <varray name="rec_basis" >
    <v>       0.12500000       0.00000000       0.00000000 </v>
    <v>       0.00000000       0.12500000       0.00000000 </v>
    <v>       0.00000000       0.00000000       0.12500000 </v>
   </varray>
  </crystal>
  <varray name="positions" >
   <v>       0.50000000       0.50000000       0.50000000 </v>
   <v>       0.62766750       0.62766750       0.62766750 </v>
   <v>       0.37233250       0.37233250       0.62766750 </v>
   <v>       0.37233250       0.62766750       0.37233250 </v>
   <v>       0.62766750       0.37233250       0.37233250 </v>
  </varray>
 </structure>
</modeling>
