unknown system                          
           1
     8.000000    0.000000    0.000000
     0.000000    8.000000    0.000000
     0.000000    0.000000    8.000000
   C    Cl
   1   4
Direct configuration=     1
   0.50000000  0.50000000  0.50000000
   0.62766750  0.62766750  0.62766750
   0.37233250  0.37233250  0.62766750
   0.37233250  0.62766750  0.37233250
   0.62766750  0.37233250  0.37233250
