   8   8   0   0
  0.6400000E+02  0.8000000E-09  0.8000000E-09  0.8000000E-09  0.5000000E-15
  1.000000000000000E-004
  CAR 
 unknown system                          
      3.51533146    -20.09244655  301     -6.63585938      1.00000000
    -20.092  0.0000E+00  0.0000E+00
    -20.014  0.0000E+00  0.0000E+00
    -19.935  0.0000E+00  0.0000E+00
    -19.856  0.0000E+00  0.0000E+00
    -19.778  0.0000E+00  0.0000E+00
    -19.699  0.0000E+00  0.0000E+00
    -19.620  0.0000E+00  0.0000E+00
    -19.542  0.0000E+00  0.0000E+00
    -19.463  0.0000E+00  0.0000E+00
    -19.384  0.0000E+00  0.0000E+00
    -19.306  0.0000E+00  0.0000E+00
    -19.227  0.1270E-14  0.9992E-16
    -19.148  0.1047E-12  0.8338E-14
    -19.069  0.6122E-11  0.4901E-12
    -18.991  0.2639E-09  0.2126E-10
    -18.912  0.8385E-08  0.6811E-09
    -18.833  0.1964E-06  0.1614E-07
    -18.755  0.3394E-05  0.2832E-06
    -18.676  0.4327E-04  0.3688E-05
    -18.597  0.4072E-03  0.3573E-04
    -18.519  0.2830E-02  0.2584E-03
    -18.440  0.1453E-01  0.1401E-02
    -18.361  0.5510E-01  0.5738E-02
    -18.283  0.1545E+00  0.1789E-01
    -18.204  0.3202E+00  0.4310E-01
    -18.125  0.4909E+00  0.8172E-01
    -18.046  0.5564E+00  0.1255E+00
    -17.968  0.4664E+00  0.1622E+00
    -17.889  0.2891E+00  0.1850E+00
    -17.810  0.1325E+00  0.1954E+00
    -17.732  0.4491E-01  0.1989E+00
    -17.653  0.1125E-01  0.1998E+00
    -17.574  0.2082E-02  0.2000E+00
    -17.496  0.2846E-03  0.2000E+00
    -17.417  0.2873E-04  0.2000E+00
    -17.338  0.2140E-05  0.2000E+00
    -17.260  0.1177E-06  0.2000E+00
    -17.181  0.4770E-08  0.2000E+00
    -17.102  0.1426E-09  0.2000E+00
    -17.023  0.3141E-11  0.2000E+00
    -16.945  0.5107E-13  0.2000E+00
    -16.866  0.5643E-15  0.2000E+00
    -16.787  0.0000E+00  0.2000E+00
    -16.709  0.0000E+00  0.2000E+00
    -16.630  0.0000E+00  0.2000E+00
    -16.551  0.0000E+00  0.2000E+00
    -16.473  0.0000E+00  0.2000E+00
    -16.394  0.0000E+00  0.2000E+00
    -16.315  0.0000E+00  0.2000E+00
    -16.237  0.0000E+00  0.2000E+00
    -16.158  0.0000E+00  0.2000E+00
    -16.079  0.0000E+00  0.2000E+00
    -16.000  0.0000E+00  0.2000E+00
    -15.922  0.0000E+00  0.2000E+00
    -15.843  0.0000E+00  0.2000E+00
    -15.764  0.0000E+00  0.2000E+00
    -15.686  0.2822E-15  0.2000E+00
    -15.607  0.2046E-13  0.2000E+00
    -15.528  0.1347E-11  0.2000E+00
    -15.450  0.6523E-10  0.2000E+00
    -15.371  0.2328E-08  0.2000E+00
    -15.292  0.6124E-07  0.2000E+00
    -15.214  0.1188E-05  0.2000E+00
    -15.135  0.1701E-04  0.2000E+00
    -15.056  0.1797E-03  0.2000E+00
    -14.977  0.1401E-02  0.2001E+00
    -14.899  0.8073E-02  0.2008E+00
    -14.820  0.3436E-01  0.2035E+00
    -14.741  0.1081E+00  0.2120E+00
    -14.663  0.2514E+00  0.2318E+00
    -14.584  0.4323E+00  0.2658E+00
    -14.505  0.5497E+00  0.3090E+00
    -14.427  0.5169E+00  0.3497E+00
    -14.348  0.3595E+00  0.3780E+00
    -14.269  0.1849E+00  0.3925E+00
    -14.191  0.7029E-01  0.3981E+00
    -14.112  0.1975E-01  0.3996E+00
    -14.033  0.4102E-02  0.3999E+00
    -13.954  0.6294E-03  0.4000E+00
    -13.876  0.7132E-04  0.4000E+00
    -13.797  0.5965E-05  0.4000E+00
    -13.718  0.3682E-06  0.4000E+00
    -13.640  0.1676E-07  0.4000E+00
    -13.561  0.5628E-09  0.4000E+00
    -13.482  0.1393E-10  0.4000E+00
    -13.404  0.2540E-12  0.4000E+00
    -13.325  0.3386E-14  0.4000E+00
    -13.246  0.0000E+00  0.4000E+00
    -13.167  0.0000E+00  0.4000E+00
    -13.089  0.0000E+00  0.4000E+00
    -13.010  0.0000E+00  0.4000E+00
    -12.931  0.0000E+00  0.4000E+00
    -12.853  0.0000E+00  0.4000E+00
    -12.774  0.0000E+00  0.4000E+00
    -12.695  0.0000E+00  0.4000E+00
    -12.617  0.0000E+00  0.4000E+00
    -12.538  0.0000E+00  0.4000E+00
    -12.459  0.0000E+00  0.4000E+00
    -12.381  0.0000E+00  0.4000E+00
    -12.302  0.0000E+00  0.4000E+00
    -12.223  0.0000E+00  0.4000E+00
    -12.144  0.0000E+00  0.4000E+00
    -12.066  0.0000E+00  0.4000E+00
    -11.987  0.0000E+00  0.4000E+00
    -11.908  0.0000E+00  0.4000E+00
    -11.830  0.0000E+00  0.4000E+00
    -11.751  0.0000E+00  0.4000E+00
    -11.672  0.0000E+00  0.4000E+00
    -11.594  0.0000E+00  0.4000E+00
    -11.515  0.0000E+00  0.4000E+00
    -11.436  0.0000E+00  0.4000E+00
    -11.358  0.0000E+00  0.4000E+00
    -11.279  0.0000E+00  0.4000E+00
    -11.200  0.5643E-15  0.4000E+00
    -11.121  0.5940E-13  0.4000E+00
    -11.043  0.3795E-11  0.4000E+00
    -10.964  0.1790E-09  0.4000E+00
    -10.885  0.6225E-08  0.4000E+00
    -10.807  0.1596E-06  0.4000E+00
    -10.728  0.3017E-05  0.4000E+00
    -10.649  0.4207E-04  0.4000E+00
    -10.571  0.4331E-03  0.4000E+00
    -10.492  0.3292E-02  0.4003E+00
    -10.413  0.1848E-01  0.4018E+00
    -10.335  0.7667E-01  0.4078E+00
    -10.256  0.2351E+00  0.4263E+00
    -10.177  0.5328E+00  0.4682E+00
    -10.098  0.8929E+00  0.5385E+00
    -10.020  0.1107E+01  0.6255E+00
     -9.941  0.1014E+01  0.7054E+00
     -9.862  0.6874E+00  0.7594E+00
     -9.784  0.3445E+00  0.7866E+00
     -9.705  0.1277E+00  0.7966E+00
     -9.626  0.3497E-01  0.7993E+00
     -9.548  0.7077E-02  0.7999E+00
     -9.469  0.1058E-02  0.8000E+00
     -9.390  0.1168E-03  0.8000E+00
     -9.312  0.9524E-05  0.8000E+00
     -9.233  0.5914E-06  0.8000E+00
     -9.154  0.4310E-06  0.8000E+00
     -9.075  0.6507E-05  0.8000E+00
     -8.997  0.7701E-04  0.8000E+00
     -8.918  0.6729E-03  0.8001E+00
     -8.839  0.4342E-02  0.8004E+00
     -8.761  0.2070E-01  0.8020E+00
     -8.682  0.7292E-01  0.8078E+00
     -8.603  0.1899E+00  0.8227E+00
     -8.525  0.3656E+00  0.8515E+00
     -8.446  0.5204E+00  0.8924E+00
     -8.367  0.5480E+00  0.9356E+00
     -8.289  0.4267E+00  0.9691E+00
     -8.210  0.2458E+00  0.9885E+00
     -8.131  0.1057E+00  0.9968E+00
     -8.052  0.4049E-01  0.1000E+01
     -7.974  0.4465E-01  0.1003E+01
     -7.895  0.1348E+00  0.1014E+01
     -7.816  0.3561E+00  0.1042E+01
     -7.738  0.7019E+00  0.1097E+01
     -7.659  0.1023E+01  0.1178E+01
     -7.580  0.1104E+01  0.1265E+01
     -7.502  0.8800E+00  0.1334E+01
     -7.423  0.5189E+00  0.1375E+01
     -7.344  0.2263E+00  0.1393E+01
     -7.266  0.7293E-01  0.1398E+01
     -7.187  0.1738E-01  0.1400E+01
     -7.108  0.3059E-02  0.1400E+01
     -7.029  0.3976E-03  0.1400E+01
     -6.951  0.3817E-04  0.1400E+01
     -6.872  0.2704E-05  0.1400E+01
     -6.793  0.1414E-06  0.1400E+01
     -6.715  0.5450E-08  0.1400E+01
     -6.636  0.1549E-09  0.1400E+01
     -6.557  0.3244E-11  0.1400E+01
     -6.479  0.5023E-13  0.1400E+01
     -6.400  0.5643E-15  0.1400E+01
     -6.321  0.0000E+00  0.1400E+01
     -6.243  0.0000E+00  0.1400E+01
     -6.164  0.0000E+00  0.1400E+01
     -6.085  0.0000E+00  0.1400E+01
     -6.006  0.0000E+00  0.1400E+01
     -5.928  0.0000E+00  0.1400E+01
     -5.849  0.0000E+00  0.1400E+01
     -5.770  0.0000E+00  0.1400E+01
     -5.692  0.0000E+00  0.1400E+01
     -5.613  0.0000E+00  0.1400E+01
     -5.534  0.0000E+00  0.1400E+01
     -5.456  0.0000E+00  0.1400E+01
     -5.377  0.0000E+00  0.1400E+01
     -5.298  0.0000E+00  0.1400E+01
     -5.220  0.0000E+00  0.1400E+01
     -5.141  0.0000E+00  0.1400E+01
     -5.062  0.0000E+00  0.1400E+01
     -4.983  0.0000E+00  0.1400E+01
     -4.905  0.0000E+00  0.1400E+01
     -4.826  0.0000E+00  0.1400E+01
     -4.747  0.0000E+00  0.1400E+01
     -4.669  0.0000E+00  0.1400E+01
     -4.590  0.0000E+00  0.1400E+01
     -4.511  0.0000E+00  0.1400E+01
     -4.433  0.0000E+00  0.1400E+01
     -4.354  0.0000E+00  0.1400E+01
     -4.275  0.0000E+00  0.1400E+01
     -4.197  0.0000E+00  0.1400E+01
     -4.118  0.0000E+00  0.1400E+01
     -4.039  0.0000E+00  0.1400E+01
     -3.960  0.0000E+00  0.1400E+01
     -3.882  0.0000E+00  0.1400E+01
     -3.803  0.0000E+00  0.1400E+01
     -3.724  0.0000E+00  0.1400E+01
     -3.646  0.0000E+00  0.1400E+01
     -3.567  0.0000E+00  0.1400E+01
     -3.488  0.0000E+00  0.1400E+01
     -3.410  0.0000E+00  0.1400E+01
     -3.331  0.0000E+00  0.1400E+01
     -3.252  0.0000E+00  0.1400E+01
     -3.174  0.0000E+00  0.1400E+01
     -3.095  0.0000E+00  0.1400E+01
     -3.016  0.0000E+00  0.1400E+01
     -2.937  0.0000E+00  0.1400E+01
     -2.859  0.0000E+00  0.1400E+01
     -2.780  0.0000E+00  0.1400E+01
     -2.701  0.0000E+00  0.1400E+01
     -2.623  0.0000E+00  0.1400E+01
     -2.544  0.0000E+00  0.1400E+01
     -2.465  0.0000E+00  0.1400E+01
     -2.387  0.0000E+00  0.1400E+01
     -2.308  0.0000E+00  0.1400E+01
     -2.229  0.0000E+00  0.1400E+01
     -2.151  0.0000E+00  0.1400E+01
     -2.072  0.0000E+00  0.1400E+01
     -1.993  0.0000E+00  0.1400E+01
     -1.914  0.0000E+00  0.1400E+01
     -1.836  0.0000E+00  0.1400E+01
     -1.757  0.1411E-15  0.1400E+01
     -1.678  0.1143E-13  0.1400E+01
     -1.600  0.7857E-12  0.1400E+01
     -1.521  0.3962E-10  0.1400E+01
     -1.442  0.1472E-08  0.1400E+01
     -1.364  0.4034E-07  0.1400E+01
     -1.285  0.8149E-06  0.1400E+01
     -1.206  0.1215E-04  0.1400E+01
     -1.128  0.1336E-03  0.1400E+01
     -1.049  0.1085E-02  0.1400E+01
     -0.970  0.6508E-02  0.1401E+01
     -0.891  0.2884E-01  0.1403E+01
     -0.813  0.9444E-01  0.1410E+01
     -0.734  0.2286E+00  0.1428E+01
     -0.655  0.4093E+00  0.1461E+01
     -0.577  0.5417E+00  0.1503E+01
     -0.498  0.5303E+00  0.1545E+01
     -0.419  0.3839E+00  0.1575E+01
     -0.341  0.2055E+00  0.1591E+01
     -0.262  0.8134E-01  0.1598E+01
     -0.183  0.2380E-01  0.1600E+01
     -0.105  0.5146E-02  0.1600E+01
     -0.026  0.8220E-03  0.1600E+01
      0.053  0.9697E-04  0.1600E+01
      0.132  0.8445E-05  0.1600E+01
      0.210  0.5428E-06  0.1600E+01
      0.289  0.2574E-07  0.1600E+01
      0.368  0.9046E-09  0.1600E+01
      0.446  0.2454E-09  0.1600E+01
      0.525  0.7552E-08  0.1600E+01
      0.604  0.1901E-06  0.1600E+01
      0.682  0.3547E-05  0.1600E+01
      0.761  0.4912E-04  0.1600E+01
      0.840  0.5057E-03  0.1600E+01
      0.918  0.3875E-02  0.1600E+01
      0.997  0.2215E-01  0.1602E+01
      1.076  0.9467E-01  0.1610E+01
      1.155  0.3036E+00  0.1633E+01
      1.233  0.7339E+00  0.1691E+01
      1.312  0.1345E+01  0.1797E+01
      1.391  0.1884E+01  0.1945E+01
      1.469  0.2035E+01  0.2105E+01
      1.548  0.1709E+01  0.2240E+01
      1.627  0.1124E+01  0.2328E+01
      1.705  0.5803E+00  0.2374E+01
      1.784  0.2342E+00  0.2393E+01
      1.863  0.7334E-01  0.2398E+01
      1.941  0.1764E-01  0.2400E+01
      2.020  0.3225E-02  0.2400E+01
      2.099  0.4445E-03  0.2400E+01
      2.178  0.4589E-04  0.2400E+01
      2.256  0.3531E-05  0.2400E+01
      2.335  0.2017E-06  0.2400E+01
      2.414  0.8536E-08  0.2400E+01
      2.492  0.2671E-09  0.2400E+01
      2.571  0.6173E-11  0.2400E+01
      2.650  0.1055E-12  0.2400E+01
      2.728  0.1129E-14  0.2400E+01
      2.807  0.0000E+00  0.2400E+01
      2.886  0.0000E+00  0.2400E+01
      2.964  0.0000E+00  0.2400E+01
      3.043  0.0000E+00  0.2400E+01
      3.122  0.0000E+00  0.2400E+01
      3.201  0.0000E+00  0.2400E+01
      3.279  0.0000E+00  0.2400E+01
      3.358  0.0000E+00  0.2400E+01
      3.437  0.0000E+00  0.2400E+01
      3.515  0.0000E+00  0.2400E+01
