    8    8   10    1
  0.6400000E+02  0.8000000E-09  0.8000000E-09  0.8000000E-09  0.5000000E-15
  1.000000000000000E-004
  CAR 
 unknown system                          
   14    1   12
 
  0.0000000E+00  0.0000000E+00  0.0000000E+00  0.1000000E+01
   1      -18.092447
   2      -14.521304
   3      -10.042845
   4      -10.042215
   5       -8.432509
   6       -7.639835
   7       -7.638886
   8       -0.582245
   9        1.353671
  10        1.384282
  11        1.420366
  12        1.515331
