       N       E                     dE             d eps       ncg     rms          rms(c)
DAV:   1     0.571815517665E+02    0.57182E+02   -0.32499E+03    24   0.518E+02
DAV:   2    -0.299664931728E+02   -0.87148E+02   -0.86464E+02    36   0.138E+02
DAV:   3    -0.450188506661E+02   -0.15052E+02   -0.15022E+02    32   0.627E+01
DAV:   4    -0.458122794350E+02   -0.79343E+00   -0.79125E+00    32   0.159E+01
DAV:   5    -0.458340527530E+02   -0.21773E-01   -0.21771E-01    28   0.240E+00    0.104E+01
DAV:   6    -0.415205515161E+02    0.43135E+01   -0.80216E+00    24   0.164E+01    0.475E+00
DAV:   7    -0.406387595449E+02    0.88179E+00   -0.24820E+00    28   0.847E+00    0.233E+00
DAV:   8    -0.404204000243E+02    0.21836E+00   -0.40816E-01    28   0.422E+00    0.635E-01
DAV:   9    -0.404081733601E+02    0.12227E-01   -0.42397E-02    32   0.125E+00    0.315E-01
DAV:  10    -0.404159426099E+02   -0.77692E-02   -0.10425E-01    28   0.169E+00    0.397E-01
DAV:  11    -0.404111409863E+02    0.48016E-02   -0.20023E-02    28   0.789E-01    0.114E-01
DAV:  12    -0.404176413519E+02   -0.65004E-02   -0.30178E-03    24   0.388E-01    0.768E-02
DAV:  13    -0.404203282482E+02   -0.26869E-02   -0.12267E-03    24   0.186E-01    0.309E-02
DAV:  14    -0.404220062441E+02   -0.16780E-02   -0.27915E-04    28   0.891E-02    0.297E-02
DAV:  15    -0.404222233655E+02   -0.21712E-03   -0.13537E-04    24   0.732E-02    0.783E-03
DAV:  16    -0.404223645805E+02   -0.14121E-03   -0.18557E-05    28   0.253E-02    0.353E-03
DAV:  17    -0.404223812490E+02   -0.16668E-04   -0.26134E-06    24   0.864E-03
   1 F= -.40422381E+02 E0= -.40422381E+02  d E =-.404224E+02
       N       E                     dE             d eps       ncg     rms          rms(c)
DAV:   1    -0.404172921253E+02    0.50725E-02   -0.18483E+00    24   0.111E+01    0.481E-01
DAV:   2    -0.404136475228E+02    0.36446E-02   -0.27690E-02    28   0.113E+00    0.263E-01
DAV:   3    -0.404122335148E+02    0.14140E-02   -0.83334E-03    28   0.541E-01    0.656E-02
DAV:   4    -0.404122294484E+02    0.40664E-05   -0.86525E-04    32   0.172E-01
   2 F= -.40412229E+02 E0= -.40412229E+02  d E =0.101518E-01
       N       E                     dE             d eps       ncg     rms          rms(c)
DAV:   1    -0.404312188129E+02   -0.18985E-01   -0.70888E-01    24   0.686E+00    0.292E-01
DAV:   2    -0.404300629785E+02    0.11558E-02   -0.10413E-02    28   0.692E-01    0.166E-01
DAV:   3    -0.404295385714E+02    0.52441E-03   -0.39583E-03    24   0.365E-01    0.449E-02
DAV:   4    -0.404294957947E+02    0.42777E-04   -0.44749E-04    24   0.122E-01
   3 F= -.40429496E+02 E0= -.40429496E+02  d E =-.711455E-02
       N       E                     dE             d eps       ncg     rms          rms(c)
DAV:   1    -0.404323958631E+02   -0.28573E-02   -0.40438E-01    24   0.506E+00    0.174E-01
DAV:   2    -0.404315413468E+02    0.85452E-03   -0.36217E-03    24   0.500E-01    0.949E-02
DAV:   3    -0.404314465193E+02    0.94827E-04   -0.36620E-03    24   0.347E-01    0.493E-02
DAV:   4    -0.404313593842E+02    0.87135E-04   -0.42509E-04    24   0.119E-01
   4 F= -.40431359E+02 E0= -.40431359E+02  d E =-.186359E-02
       N       E                     dE             d eps       ncg     rms          rms(c)
DAV:   1    -0.404318840611E+02   -0.43754E-03   -0.35408E-02    24   0.149E+00    0.588E-02
DAV:   2    -0.404317669126E+02    0.11715E-03   -0.36079E-04    24   0.153E-01    0.294E-02
DAV:   3    -0.404317598636E+02    0.70490E-05   -0.34669E-04    28   0.108E-01
   5 F= -.40431760E+02 E0= -.40431760E+02  d E =-.226407E-02
