 vasp.5.2.12 11Nov11 complex                                                    
  
 executed on             LinuxIFC date 2012.11.03  00:25:02
 running on    1 nodes
 distr:  one band on    1 nodes,    1 groups


--------------------------------------------------------------------------------------------------------


 INCAR:
 POTCAR:   PAW_PBE H 15Jun2001                    
 POTCAR:   PAW_PBE C 08Apr2002                    
 POTCAR:   PAW_PBE H 15Jun2001                    
   VRHFIN =H: ultrasoft test                                                    
   LEXCH  = PE                                                                  
   EATOM  =    12.4884 eV,     .9179 Ry                                         
                                                                                
   TITEL  = PAW_PBE H 15Jun2001                                                 
   LULTRA =        F    use ultrasoft PP ?                                      
   IUNSCR =        0    unscreen: 0-lin 1-nonlin 2-no                           
   RPACOR =     .000    partial core radius                                     
   POMASS =    1.000; ZVAL   =    1.000    mass and valenz                      
   RCORE  =    1.100    outmost cutoff radius                                   
   RWIGS  =     .700; RWIGS  =     .370    wigner-seitz radius (au A)           
   ENMAX  =  250.000; ENMIN  =  200.000 eV                                      
   RCLOC  =     .701    cutoff for local pot                                    
   LCOR   =        T    correct aug charges                                     
   LPAW   =        T    paw PP                                                  
   EAUG   =  400.000                                                            
   RMAX   =    2.174    core radius for proj-oper                               
   RAUG   =    1.200    factor for augmentation sphere                          
   RDEP   =    1.112    radius for radial grids                                 
   QCUT   =   -5.749; QGAM   =   11.498    optimization parameters              
                                                                                
   Description                                                                  
     l     E      TYP  RCUT    TYP  RCUT                                        
     0   .000     23  1.100                                                     
     0   .500     23  1.100                                                     
     1  -.300     23  1.100                                                     
  local pseudopotential read in
  atomic valenz-charges read in
  non local Contribution for L=           0  read in
    real space projection operators read in
  non local Contribution for L=           0  read in
    real space projection operators read in
  non local Contribution for L=           1  read in
    real space projection operators read in
    PAW grid and wavefunctions read in
 
   number of l-projection  operators is LMAX  =           3
   number of lm-projection operators is LMMAX =           5
 
 POTCAR:   PAW_PBE C 08Apr2002                    
   VRHFIN =C: s2p2                                                              
   LEXCH  = PE                                                                  
   EATOM  =   147.1560 eV,   10.8157 Ry                                         
                                                                                
   TITEL  = PAW_PBE C 08Apr2002                                                 
   LULTRA =        F    use ultrasoft PP ?                                      
   IUNSCR =        0    unscreen: 0-lin 1-nonlin 2-no                           
   RPACOR =     .000    partial core radius                                     
   POMASS =   12.011; ZVAL   =    4.000    mass and valenz                      
   RCORE  =    1.500    outmost cutoff radius                                   
   RWIGS  =    1.630; RWIGS  =     .863    wigner-seitz radius (au A)           
   ENMAX  =  400.000; ENMIN  =  300.000 eV                                      
   ICORE  =        2    local potential                                         
   LCOR   =        T    correct aug charges                                     
   LPAW   =        T    paw PP                                                  
   EAUG   =  644.873                                                            
   DEXC   =     .000                                                            
   RMAX   =    2.266    core radius for proj-oper                               
   RAUG   =    1.300    factor for augmentation sphere                          
   RDEP   =    1.501    radius for radial grids                                 
   RDEPT  =    1.300    core radius for aug-charge                              
   QCUT   =   -5.516; QGAM   =   11.032    optimization parameters              
                                                                                
   Description                                                                  
     l     E      TYP  RCUT    TYP  RCUT                                        
     0   .000     23  1.200                                                     
     0   .000     23  1.200                                                     
     1   .000     23  1.500                                                     
     1  2.500     23  1.500                                                     
     2   .000      7  1.500                                                     
  local pseudopotential read in
  atomic valenz-charges read in
  non local Contribution for L=           0  read in
    real space projection operators read in
  non local Contribution for L=           0  read in
    real space projection operators read in
  non local Contribution for L=           1  read in
    real space projection operators read in
  non local Contribution for L=           1  read in
    real space projection operators read in
    PAW grid and wavefunctions read in
 
   number of l-projection  operators is LMAX  =           4
   number of lm-projection operators is LMMAX =           8
 
 PAW_PBE H 15Jun2001                    :
 energy of atom  1       EATOM=  -12.4884
 kinetic energy error for atom=    0.0203 (will be added to EATOM!!)
 PAW_PBE C 08Apr2002                    :
 energy of atom  2       EATOM= -147.1560
 kinetic energy error for atom=    0.0854 (will be added to EATOM!!)
 
 
 POSCAR:  H  C                                   
  positions in cartesian coordinates
  No initial velocities read in
 exchange correlation table for  LEXCH =        8
   RHO(1)=    0.500       N(1)  =     2000
   RHO(2)=  100.500       N(2)  =     4000
 


--------------------------------------------------------------------------------------------------------


 ion  position               nearest neighbor table
   1  0.000  0.127  0.145-   7 1.09
   2  0.890  0.936  0.145-   7 1.09
   3  0.110  0.936  0.145-   7 1.09
   4  0.000  0.873  0.855-   8 1.09
   5  0.890  0.064  0.855-   8 1.09
   6  0.110  0.064  0.855-   8 1.09
   7  0.000  0.000  0.095-   1 1.09   2 1.09   3 1.09   8 1.52
   8  0.000  0.000  0.905-   4 1.09   5 1.09   6 1.09   7 1.52
 
  LATTYP: Found a simple cubic cell.
 ALAT       =     8.0000000000
  
  Lattice vectors:
  
 A1 = (   8.0000000000,   0.0000000000,   0.0000000000)
 A2 = (   0.0000000000,   8.0000000000,   0.0000000000)
 A3 = (   0.0000000000,   0.0000000000,   8.0000000000)
 Subroutine PRICEL returns:
 Original cell was already a primitive cell.
 

Analysis of symmetry for initial positions (statically):

 Routine SETGRP: Setting up the symmetry group for a 
 simple cubic supercell.


 Subroutine GETGRP returns: Found  4 space group operations
 (whereof  4 operations were pure point group operations)
 out of a pool of 48 trial point group operations.


The static configuration has the point symmetry C_2h.

Analysis of symmetry for dynamics (positions and initial velocities):

 Subroutine DYNSYM returns: Found  4 space group operations
 (whereof  4 operations were pure point group operations)
 out of a pool of  4 trial space group operations
 (whereof  4 operations were pure point group operations)
 and found also     1 'primitive' translations


The dynamic configuration has the point symmetry C_2h.
 
 
 KPOINTS: KPOINTS created by Atomic Simulation Env

Automatic generation of k-mesh.
 
 Subroutine IBZKPT returns following result:
 ===========================================
 
 Found      1 irreducible k-points:
 
 Following reciprocal coordinates:
            Coordinates               Weight
  0.000000  0.000000  0.000000      1.000000
 
 Following cartesian coordinates:
            Coordinates               Weight
  0.000000  0.000000  0.000000      1.000000
 


--------------------------------------------------------------------------------------------------------




 Dimension of arrays:
   k-points           NKPTS =      1   k-points in BZ     NKDIM =      1   number of bands    NBANDS=     12
   number of dos      NEDOS =    301   number of ions     NIONS =      8
   non local maximal  LDIM  =      4   non local SUM 2l+1 LMDIM =      8
   total plane-waves  NPLWV =  64000
   max r-space proj   IRMAX =      1   max aug-charges    IRDMAX=   1674
   dimension x,y,z NGX =    40 NGY =   40 NGZ =   40
   dimension x,y,z NGXF=    80 NGYF=   80 NGZF=   80
   support grid    NGXF=    80 NGYF=   80 NGZF=   80
   ions per type =               6   2
 NGX,Y,Z   is equivalent  to a cutoff of   8.31,  8.31,  8.31 a.u.
 NGXF,Y,Z  is equivalent  to a cutoff of  16.62, 16.62, 16.62 a.u.


 I would recommend the setting:
   dimension x,y,z NGX =    37 NGY =   37 NGZ =   37
 SYSTEM =  unknown system                          
 POSCAR =   H  C                                   

 Startparameter for this run:
   NWRITE =      2    write-flag & timer
   PREC   = normal    normal or accurate (medium, high low for compatibility)
   ISTART =      0    job   : 0-new  1-cont  2-samecut
   ICHARG =      2    charge: 1-file 2-atom 10-const
   ISPIN  =      1    spin polarized calculation?
   LNONCOLLINEAR =      F non collinear calculations
   LSORBIT =      F    spin-orbit coupling
   INIWAV =      1    electr: 0-lowe 1-rand  2-diag
   LASPH  =      F    aspherical Exc in radial PAW
   METAGGA=      F    non-selfconsistent MetaGGA calc.

 Electronic Relaxation 1
   ENCUT  =  350.0 eV  25.72 Ry    5.07 a.u.  12.20 12.20 12.20*2*pi/ulx,y,z
   ENINI  =  350.0     initial cutoff
   ENAUG  =  644.9 eV  augmentation charge cutoff
   NELM   =     60;   NELMIN=  2; NELMDL= -5     # of ELM steps 
   EDIFF  = 0.1E-03   stopping-criterion for ELM
   LREAL  =      F    real-space projection
   NLSPLINE    = F    spline interpolate recip. space projectors
   LCOMPAT=      F    compatible to vasp.4.4
   GGA_COMPAT  = T    GGA compatible to vasp.4.4-vasp.4.6
   LMAXPAW     = -100 max onsite density
   LMAXMIX     =    2 max onsite mixed and CHGCAR
   VOSKOWN=      0    Vosko Wilk Nusair interpolation
   ROPT   =    0.00000   0.00000
 Ionic relaxation
   EDIFFG = 0.1E-02   stopping-criterion for IOM
   NSW    =     10    number of steps for IOM
   NBLOCK =      1;   KBLOCK =     10    inner block; outer block 
   IBRION =      2    ionic relax: 0-MD 1-quasi-New 2-CG
   NFREE  =      1    steps in history (QN), initial steepest desc. (CG)
   ISIF   =      2    stress and relaxation
   IWAVPR =     11    prediction:  0-non 1-charg 2-wave 3-comb
   ISYM   =      2    0-nonsym 1-usesym 2-fastsym
   LCORR  =      T    Harris-Foulkes like correction to forces

   POTIM  = 0.5000    time-step for ionic-motion
   TEIN   =    0.0    initial temperature
   TEBEG  =    0.0;   TEEND  =   0.0 temperature during run
   SMASS  =  -3.00    Nose mass-parameter (am)
   estimated Nose-frequenzy (Omega)   =  0.10E-29 period in steps =****** mass=  -0.146E-26a.u.
   SCALEE = 1.0000    scale energy and forces
   NPACO  =    256;   APACO  = 16.0  distance and # of slots for P.C.
   PSTRESS=    0.0 pullay stress

  Mass of Ions in am
   POMASS =   1.00 12.01
  Ionic Valenz
   ZVAL   =   1.00  4.00
  Atomic Wigner-Seitz radii
   RWIGS  =  -1.00 -1.00
  virtual crystal weights 
   VCA    =   1.00  1.00
   NELECT =      14.0000    total number of electrons
   NUPDOWN=      -1.0000    fix difference up-down

 DOS related values:
   EMIN   =  10.00;   EMAX   =-10.00  energy-range for DOS
   EFERMI =   0.00
   ISMEAR =     0;   SIGMA  =   0.20  broadening in eV -4-tet -1-fermi 0-gaus

 Electronic relaxation 2 (details)
   IALGO  =     38    algorithm
   LDIAG  =      T    sub-space diagonalisation (order eigenvalues)
   LSUBROT=      T    optimize rotation matrix (better conditioning)
   TURBO    =      0    0=normal 1=particle mesh
   IRESTART =      0    0=no restart 2=restart with 2 vectors
   NREBOOT  =      0    no. of reboots
   NMIN     =      0    reboot dimension
   EREF     =   0.00    reference energy to select bands
   IMIX   =      4    mixing-type and parameters
     AMIX     =   0.40;   BMIX     =  1.00
     AMIX_MAG =   1.60;   BMIX_MAG =  1.00
     AMIN     =   0.10
     WC   =   100.;   INIMIX=   1;  MIXPRE=   1

 Intra band minimization:
   WEIMIN = 0.0010     energy-eigenvalue tresh-hold
   EBREAK =  0.21E-05  absolut break condition
   DEPER  =   0.30     relativ break condition  

   TIME   =   0.40     timestep for ELM

  volume/ion in A,a.u.               =      64.00       431.89
  Fermi-wavevector in a.u.,A,eV,Ry     =   0.493205  0.932022  3.309634  0.243251
  Thomas-Fermi vector in A             =   1.497503
 
 Write flags
   LWAVE  =      T    write WAVECAR
   LCHARG =      T    write CHGCAR
   LVTOT  =      F    write LOCPOT, total local potential
   LVHAR  =      F    write LOCPOT, Hartree potential only
   LELF   =      F    write electronic localiz. function (ELF)
   LORBIT =      0    0 simple, 1 ext, 2 COOP (PROOUT)


 Dipole corrections
   LMONO  =      F    monopole corrections only (constant potential shift)
   LDIPOL =      F    correct potential (dipole corrections)
   IDIPOL =      0    1-x, 2-y, 3-z, 4-all directions 
   EPSILON=  1.0000000 bulk dielectric constant

 Exchange correlation treatment:
   GGA     =    --    GGA type
   LEXCH   =     8    internal setting for exchange type
   VOSKOWN=      0    Vosko Wilk Nusair interpolation
   LHFCALC =     F    Hartree Fock is set to
   LHFONE  =     F    Hartree Fock one center treatment
   AEXX    =    0.0000 exact exchange contribution

 Linear response parameters
   LEPSILON=     F    determine dielectric tensor
   LRPA    =     F    only Hartree local field effects (RPA)
   LNABLA  =     F    use nabla operator in PAW spheres
   LVEL    =     F    velocity operator in full k-point grid
   LINTERFAST=   F  fast interpolation
   KINTER  =     0    interpolate to denser k-point grid
   CSHIFT  =0.1000    complex shift for real part using Kramers Kronig
   OMEGAMAX=  -1.0    maximum frequency
   RTIME   =    0.100 relaxation time in fs

 Orbital magnetization related:
   ORBITALMAG=     F  switch on orbital magnetization
   LCHIMAG   =     F  perturbation theory with respect to B field
   DQ        =  0.001000  dq finite difference perturbation B field



--------------------------------------------------------------------------------------------------------


 conjugate gradient relaxation of ions
 charge density and potential will be updated during run
 non-spin polarized calculation
 Variant of blocked Davidson
 Davidson routine will perform the subspace rotation
 perform sub-space diagonalisation
    after iterative eigenvector-optimisation
 modified Broyden-mixing scheme, WC =      100.0
 initial mixing is a Kerker type mixing with AMIX =  0.4000 and BMIX =      1.0000
 Hartree-type preconditioning will be used
 using additional bands            5
 reciprocal scheme for non local part
 calculate Harris-corrections to forces 
   (improved forces if not selfconsistent)
 use gradient corrections 
 use of overlap-Matrix (Vanderbilt PP)
 Gauss-broadening in eV      SIGMA  =   0.20


--------------------------------------------------------------------------------------------------------


  energy-cutoff  :      350.00
  volume of cell :      512.00
      direct lattice vectors                 reciprocal lattice vectors
     8.000000000  0.000000000  0.000000000     0.125000000  0.000000000  0.000000000
     0.000000000  8.000000000  0.000000000     0.000000000  0.125000000  0.000000000
     0.000000000  0.000000000  8.000000000     0.000000000  0.000000000  0.125000000

  length of vectors
     8.000000000  8.000000000  8.000000000     0.125000000  0.125000000  0.125000000


 
 k-points in units of 2pi/SCALE and weight: KPOINTS created by Atomic Simulation Env
   0.00000000  0.00000000  0.00000000       1.000
 
 k-points in reciprocal lattice and weights: KPOINTS created by Atomic Simulation Env
   0.00000000  0.00000000  0.00000000       1.000
 
 position of ions in fractional coordinates (direct lattice) 
   0.00000000  0.12736963  0.14465362
   0.88969462  0.93631513  0.14465362
   0.11030538  0.93631513  0.14465362
   0.00000000  0.87263037  0.85534638
   0.88969462  0.06368487  0.85534638
   0.11030538  0.06368487  0.85534638
   0.00000000  0.00000000  0.09527612
   0.00000000  0.00000000  0.90472388
 
 position of ions in cartesian coordinates  (Angst):
   0.00000000  1.01895700  1.15722900
   7.11755700  7.49052100  1.15722900
   0.88244300  7.49052100  1.15722900
   0.00000000  6.98104300  6.84277100
   7.11755700  0.50947900  6.84277100
   0.88244300  0.50947900  6.84277100
   0.00000000  0.00000000  0.76220900
   0.00000000  0.00000000  7.23779100
 


--------------------------------------------------------------------------------------------------------


 k-point  1 :  0.00000.00000.0000  plane waves:    7521

 maximum and minimum number of plane-waves per node :      7521     7521

 maximum number of plane-waves:      7521
 maximum index in each direction: 
   IXMAX=   12   IYMAX=   12   IZMAX=   12
   IXMIN=  -12   IYMIN=  -12   IZMIN=  -12

 WARNING: aliasing errors must be expected set NGX to  50 to avoid them
 WARNING: aliasing errors must be expected set NGY to  50 to avoid them
 WARNING: aliasing errors must be expected set NGZ to  50 to avoid them
 aliasing errors are usually negligible using standard VASP settings
 and one can safely disregard these warnings

 serial   3D FFT for wavefunctions
 parallel 3D FFT for charge:
    minimum data exchange during FFTs selected (reduces bandwidth)


 total amount of memory used by VASP on root node    83034. kBytes
========================================================================

   base      :      30000. kBytes
   nonl-proj :       1925. kBytes
   fftplans  :      17864. kBytes
   grid      :      31769. kBytes
   one-center:         24. kBytes
   wavefun   :       1452. kBytes
 
 Broyden mixing: mesh for mixing (old mesh)
   NGX = 25   NGY = 25   NGZ = 25
  (NGX  = 80   NGY  = 80   NGZ  = 80)
  gives a total of  15625 points

 initial charge density was supplied:
 charge density of overlapping atoms calculated
 number of electron      14.0000000 magnetization 
 keeping initial charge density in first step


--------------------------------------------------------------------------------------------------------


 Maximum index for augmentation-charges         1434 (set IRDMAX)


--------------------------------------------------------------------------------------------------------


 First call to EWALD:  gamma=   0.222
 Maximum number of real-space cells 3x 3x 3
 Maximum number of reciprocal cells 3x 3x 3

    FEWALD:  cpu time    0.00: real time    0.00


----------------------------------------- Iteration    1(   1)  ---------------------------------------


    POTLOK:  cpu time    0.79: real time    0.79
    SETDIJ:  cpu time    0.02: real time    0.02
     EDDAV:  cpu time    0.43: real time    0.43
       DOS:  cpu time    0.00: real time    0.00
    --------------------------------------------
      LOOP:  cpu time    1.24: real time    1.24

 eigenvalue-minimisations  :    24
 total energy-change (2. order) : 0.5718155E+02  (-0.3249923E+03)
 number of electron      14.0000000 magnetization 
 augmentation part       14.0000000 magnetization 

 Free energy of the ion-electron system (eV)
  ---------------------------------------------------
  alpha Z        PSCENC =         1.51367591
  Ewald energy   TEWEN  =       238.82698518
  -1/2 Hartree   DENC   =      -467.83007563
  -exchange  EXHF       =         0.00000000
  -V(xc)+E(xc)   XCENC  =        41.11769193
  PAW double counting   =        80.35084045      -82.70584614
  entropy T*S    EENTRO =        -0.00000003
  eigenvalues    EBANDS =      -123.04176167
  atomic energy  EATOM  =       368.95004178
  ---------------------------------------------------
  free energy    TOTEN  =        57.18155177 eV

  energy without entropy =       57.18155180  energy(sigma->0) =       57.18155178


--------------------------------------------------------------------------------------------------------




----------------------------------------- Iteration    1(   2)  ---------------------------------------


     EDDAV:  cpu time    0.57: real time    0.57
       DOS:  cpu time    0.00: real time    0.00
    --------------------------------------------
      LOOP:  cpu time    0.57: real time    0.57

 eigenvalue-minimisations  :    36
 total energy-change (2. order) :-0.8714804E+02  (-0.8646396E+02)
 number of electron      14.0000000 magnetization 
 augmentation part       14.0000000 magnetization 

 Free energy of the ion-electron system (eV)
  ---------------------------------------------------
  alpha Z        PSCENC =         1.51367591
  Ewald energy   TEWEN  =       238.82698518
  -1/2 Hartree   DENC   =      -467.83007563
  -exchange  EXHF       =         0.00000000
  -V(xc)+E(xc)   XCENC  =        41.11769193
  PAW double counting   =        80.35084045      -82.70584614
  entropy T*S    EENTRO =         0.00000000
  eigenvalues    EBANDS =      -210.18980664
  atomic energy  EATOM  =       368.95004178
  ---------------------------------------------------
  free energy    TOTEN  =       -29.96649317 eV

  energy without entropy =      -29.96649317  energy(sigma->0) =      -29.96649317


--------------------------------------------------------------------------------------------------------




----------------------------------------- Iteration    1(   3)  ---------------------------------------


     EDDAV:  cpu time    0.53: real time    0.53
       DOS:  cpu time    0.00: real time    0.00
    --------------------------------------------
      LOOP:  cpu time    0.53: real time    0.54

 eigenvalue-minimisations  :    32
 total energy-change (2. order) :-0.1505236E+02  (-0.1502196E+02)
 number of electron      14.0000000 magnetization 
 augmentation part       14.0000000 magnetization 

 Free energy of the ion-electron system (eV)
  ---------------------------------------------------
  alpha Z        PSCENC =         1.51367591
  Ewald energy   TEWEN  =       238.82698518
  -1/2 Hartree   DENC   =      -467.83007563
  -exchange  EXHF       =         0.00000000
  -V(xc)+E(xc)   XCENC  =        41.11769193
  PAW double counting   =        80.35084045      -82.70584614
  entropy T*S    EENTRO =         0.00000000
  eigenvalues    EBANDS =      -225.24216414
  atomic energy  EATOM  =       368.95004178
  ---------------------------------------------------
  free energy    TOTEN  =       -45.01885067 eV

  energy without entropy =      -45.01885067  energy(sigma->0) =      -45.01885067


--------------------------------------------------------------------------------------------------------




----------------------------------------- Iteration    1(   4)  ---------------------------------------


     EDDAV:  cpu time    0.52: real time    0.52
       DOS:  cpu time    0.00: real time    0.00
    --------------------------------------------
      LOOP:  cpu time    0.52: real time    0.54

 eigenvalue-minimisations  :    32
 total energy-change (2. order) :-0.7934288E+00  (-0.7912530E+00)
 number of electron      14.0000000 magnetization 
 augmentation part       14.0000000 magnetization 

 Free energy of the ion-electron system (eV)
  ---------------------------------------------------
  alpha Z        PSCENC =         1.51367591
  Ewald energy   TEWEN  =       238.82698518
  -1/2 Hartree   DENC   =      -467.83007563
  -exchange  EXHF       =         0.00000000
  -V(xc)+E(xc)   XCENC  =        41.11769193
  PAW double counting   =        80.35084045      -82.70584614
  entropy T*S    EENTRO =         0.00000000
  eigenvalues    EBANDS =      -226.03559291
  atomic energy  EATOM  =       368.95004178
  ---------------------------------------------------
  free energy    TOTEN  =       -45.81227943 eV

  energy without entropy =      -45.81227943  energy(sigma->0) =      -45.81227943


--------------------------------------------------------------------------------------------------------




----------------------------------------- Iteration    1(   5)  ---------------------------------------


     EDDAV:  cpu time    0.47: real time    0.47
       DOS:  cpu time    0.00: real time    0.00
    CHARGE:  cpu time    0.10: real time    0.10
    MIXING:  cpu time    0.02: real time    0.03
    --------------------------------------------
      LOOP:  cpu time    0.60: real time    0.62

 eigenvalue-minimisations  :    28
 total energy-change (2. order) :-0.2177332E-01  (-0.2177070E-01)
 number of electron      14.0000001 magnetization 
 augmentation part        0.3808787 magnetization 

 Broyden mixing:
  rms(total) = 0.10399E+01    rms(broyden)= 0.10396E+01
  rms(prec ) = 0.17101E+01
  weight for this iteration     100.00

 Free energy of the ion-electron system (eV)
  ---------------------------------------------------
  alpha Z        PSCENC =         1.51367591
  Ewald energy   TEWEN  =       238.82698518
  -1/2 Hartree   DENC   =      -467.83007563
  -exchange  EXHF       =         0.00000000
  -V(xc)+E(xc)   XCENC  =        41.11769193
  PAW double counting   =        80.35084045      -82.70584614
  entropy T*S    EENTRO =         0.00000000
  eigenvalues    EBANDS =      -226.05736622
  atomic energy  EATOM  =       368.95004178
  ---------------------------------------------------
  free energy    TOTEN  =       -45.83405275 eV

  energy without entropy =      -45.83405275  energy(sigma->0) =      -45.83405275


--------------------------------------------------------------------------------------------------------




----------------------------------------- Iteration    1(   6)  ---------------------------------------


    POTLOK:  cpu time    0.77: real time    0.77
    SETDIJ:  cpu time    0.02: real time    0.03
     EDDAV:  cpu time    0.42: real time    0.42
       DOS:  cpu time    0.00: real time    0.00
    CHARGE:  cpu time    0.10: real time    0.10
    MIXING:  cpu time    0.03: real time    0.03
    --------------------------------------------
      LOOP:  cpu time    1.34: real time    1.36

 eigenvalue-minimisations  :    24
 total energy-change (2. order) : 0.4313501E+01  (-0.8021624E+00)
 number of electron      14.0000002 magnetization 
 augmentation part        0.3404861 magnetization 

 Broyden mixing:
  rms(total) = 0.47466E+00    rms(broyden)= 0.47454E+00
  rms(prec ) = 0.75028E+00
  weight for this iteration     100.00

 eigenvalues of (default mixing * dielectric matrix)
  average eigenvalue GAMMA=   1.4351
  1.4351

 Free energy of the ion-electron system (eV)
  ---------------------------------------------------
  alpha Z        PSCENC =         1.51367591
  Ewald energy   TEWEN  =       238.82698518
  -1/2 Hartree   DENC   =      -501.35881807
  -exchange  EXHF       =         0.00000000
  -V(xc)+E(xc)   XCENC  =        42.97743375
  PAW double counting   =       128.24943899     -130.92095182
  entropy T*S    EENTRO =         0.00000000
  eigenvalues    EBANDS =      -189.75835724
  atomic energy  EATOM  =       368.95004178
  ---------------------------------------------------
  free energy    TOTEN  =       -41.52055152 eV

  energy without entropy =      -41.52055152  energy(sigma->0) =      -41.52055152


--------------------------------------------------------------------------------------------------------




----------------------------------------- Iteration    1(   7)  ---------------------------------------


    POTLOK:  cpu time    0.77: real time    0.77
    SETDIJ:  cpu time    0.02: real time    0.02
     EDDAV:  cpu time    0.47: real time    0.47
       DOS:  cpu time    0.00: real time    0.00
    CHARGE:  cpu time    0.10: real time    0.10
    MIXING:  cpu time    0.03: real time    0.03
    --------------------------------------------
      LOOP:  cpu time    1.39: real time    1.40

 eigenvalue-minimisations  :    28
 total energy-change (2. order) : 0.8817920E+00  (-0.2481962E+00)
 number of electron      14.0000002 magnetization 
 augmentation part        0.3247496 magnetization 

 Broyden mixing:
  rms(total) = 0.23274E+00    rms(broyden)= 0.23259E+00
  rms(prec ) = 0.33614E+00
  weight for this iteration     100.00

 eigenvalues of (default mixing * dielectric matrix)
  average eigenvalue GAMMA=   2.0284
  1.5115  2.5453

 Free energy of the ion-electron system (eV)
  ---------------------------------------------------
  alpha Z        PSCENC =         1.51367591
  Ewald energy   TEWEN  =       238.82698518
  -1/2 Hartree   DENC   =      -524.08679922
  -exchange  EXHF       =         0.00000000
  -V(xc)+E(xc)   XCENC  =        44.46969832
  PAW double counting   =       161.55887787     -164.32261014
  entropy T*S    EENTRO =         0.00000000
  eigenvalues    EBANDS =      -167.54862924
  atomic energy  EATOM  =       368.95004178
  ---------------------------------------------------
  free energy    TOTEN  =       -40.63875954 eV

  energy without entropy =      -40.63875954  energy(sigma->0) =      -40.63875954


--------------------------------------------------------------------------------------------------------




----------------------------------------- Iteration    1(   8)  ---------------------------------------


    POTLOK:  cpu time    0.77: real time    0.77
    SETDIJ:  cpu time    0.02: real time    0.02
     EDDAV:  cpu time    0.47: real time    0.47
       DOS:  cpu time    0.00: real time    0.00
    CHARGE:  cpu time    0.10: real time    0.10
    MIXING:  cpu time    0.03: real time    0.03
    --------------------------------------------
      LOOP:  cpu time    1.39: real time    1.42

 eigenvalue-minimisations  :    28
 total energy-change (2. order) : 0.2183595E+00  (-0.4081618E-01)
 number of electron      14.0000002 magnetization 
 augmentation part        0.3250936 magnetization 

 Broyden mixing:
  rms(total) = 0.63496E-01    rms(broyden)= 0.63474E-01
  rms(prec ) = 0.11743E+00
  weight for this iteration     100.00

 eigenvalues of (default mixing * dielectric matrix)
  average eigenvalue GAMMA=   1.5407
  2.3439  0.8509  1.4272

 Free energy of the ion-electron system (eV)
  ---------------------------------------------------
  alpha Z        PSCENC =         1.51367591
  Ewald energy   TEWEN  =       238.82698518
  -1/2 Hartree   DENC   =      -533.16777139
  -exchange  EXHF       =         0.00000000
  -V(xc)+E(xc)   XCENC  =        45.34851221
  PAW double counting   =       170.10925934     -172.78530969
  entropy T*S    EENTRO =         0.00000000
  eigenvalues    EBANDS =      -159.21579337
  atomic energy  EATOM  =       368.95004178
  ---------------------------------------------------
  free energy    TOTEN  =       -40.42040002 eV

  energy without entropy =      -40.42040002  energy(sigma->0) =      -40.42040002


--------------------------------------------------------------------------------------------------------




----------------------------------------- Iteration    1(   9)  ---------------------------------------


    POTLOK:  cpu time    0.77: real time    0.77
    SETDIJ:  cpu time    0.02: real time    0.02
     EDDAV:  cpu time    0.52: real time    0.52
       DOS:  cpu time    0.00: real time    0.00
    CHARGE:  cpu time    0.10: real time    0.10
    MIXING:  cpu time    0.03: real time    0.03
    --------------------------------------------
      LOOP:  cpu time    1.44: real time    1.46

 eigenvalue-minimisations  :    32
 total energy-change (2. order) : 0.1222666E-01  (-0.4239750E-02)
 number of electron      14.0000002 magnetization 
 augmentation part        0.3238061 magnetization 

 Broyden mixing:
  rms(total) = 0.31457E-01    rms(broyden)= 0.31454E-01
  rms(prec ) = 0.71915E-01
  weight for this iteration     100.00

 eigenvalues of (default mixing * dielectric matrix)
  average eigenvalue GAMMA=   1.6426
  2.1225  2.1225  0.9757  1.3496

 Free energy of the ion-electron system (eV)
  ---------------------------------------------------
  alpha Z        PSCENC =         1.51367591
  Ewald energy   TEWEN  =       238.82698518
  -1/2 Hartree   DENC   =      -534.71284660
  -exchange  EXHF       =         0.00000000
  -V(xc)+E(xc)   XCENC  =        45.38455799
  PAW double counting   =       171.18431833     -173.87709181
  entropy T*S    EENTRO =         0.00000000
  eigenvalues    EBANDS =      -157.67781413
  atomic energy  EATOM  =       368.95004178
  ---------------------------------------------------
  free energy    TOTEN  =       -40.40817336 eV

  energy without entropy =      -40.40817336  energy(sigma->0) =      -40.40817336


--------------------------------------------------------------------------------------------------------




----------------------------------------- Iteration    1(  10)  ---------------------------------------


    POTLOK:  cpu time    0.77: real time    0.77
    SETDIJ:  cpu time    0.02: real time    0.02
     EDDAV:  cpu time    0.47: real time    0.47
       DOS:  cpu time    0.00: real time    0.00
    CHARGE:  cpu time    0.10: real time    0.10
    MIXING:  cpu time    0.03: real time    0.03
    --------------------------------------------
      LOOP:  cpu time    1.39: real time    1.42

 eigenvalue-minimisations  :    28
 total energy-change (2. order) :-0.7769250E-02  (-0.1042542E-01)
 number of electron      14.0000002 magnetization 
 augmentation part        0.3199900 magnetization 

 Broyden mixing:
  rms(total) = 0.39713E-01    rms(broyden)= 0.39689E-01
  rms(prec ) = 0.64512E-01
  weight for this iteration     100.00

 eigenvalues of (default mixing * dielectric matrix)
  average eigenvalue GAMMA=   1.7484
  2.8058  2.8058  1.2492  0.9404  0.9404

 Free energy of the ion-electron system (eV)
  ---------------------------------------------------
  alpha Z        PSCENC =         1.51367591
  Ewald energy   TEWEN  =       238.82698518
  -1/2 Hartree   DENC   =      -539.08535498
  -exchange  EXHF       =         0.00000000
  -V(xc)+E(xc)   XCENC  =        45.50546563
  PAW double counting   =       170.29752093     -173.00616089
  entropy T*S    EENTRO =         0.00000000
  eigenvalues    EBANDS =      -153.41811616
  atomic energy  EATOM  =       368.95004178
  ---------------------------------------------------
  free energy    TOTEN  =       -40.41594261 eV

  energy without entropy =      -40.41594261  energy(sigma->0) =      -40.41594261


--------------------------------------------------------------------------------------------------------




----------------------------------------- Iteration    1(  11)  ---------------------------------------


    POTLOK:  cpu time    0.76: real time    0.76
    SETDIJ:  cpu time    0.02: real time    0.02
     EDDAV:  cpu time    0.47: real time    0.47
       DOS:  cpu time    0.00: real time    0.00
    CHARGE:  cpu time    0.10: real time    0.10
    MIXING:  cpu time    0.03: real time    0.03
    --------------------------------------------
      LOOP:  cpu time    1.38: real time    1.39

 eigenvalue-minimisations  :    28
 total energy-change (2. order) : 0.4801624E-02  (-0.2002272E-02)
 number of electron      14.0000002 magnetization 
 augmentation part        0.3215286 magnetization 

 Broyden mixing:
  rms(total) = 0.11383E-01    rms(broyden)= 0.11382E-01
  rms(prec ) = 0.19795E-01
  weight for this iteration     100.00

 eigenvalues of (default mixing * dielectric matrix)
  average eigenvalue GAMMA=   1.8787
  3.7335  2.1292  2.1292  0.9982  1.1410  1.1410

 Free energy of the ion-electron system (eV)
  ---------------------------------------------------
  alpha Z        PSCENC =         1.51367591
  Ewald energy   TEWEN  =       238.82698518
  -1/2 Hartree   DENC   =      -538.79492068
  -exchange  EXHF       =         0.00000000
  -V(xc)+E(xc)   XCENC  =        45.49804399
  PAW double counting   =       168.88068714     -171.57292357
  entropy T*S    EENTRO =         0.00000000
  eigenvalues    EBANDS =      -153.71273075
  atomic energy  EATOM  =       368.95004178
  ---------------------------------------------------
  free energy    TOTEN  =       -40.41114099 eV

  energy without entropy =      -40.41114099  energy(sigma->0) =      -40.41114099


--------------------------------------------------------------------------------------------------------




----------------------------------------- Iteration    1(  12)  ---------------------------------------


    POTLOK:  cpu time    0.74: real time    0.74
    SETDIJ:  cpu time    0.02: real time    0.02
     EDDAV:  cpu time    0.42: real time    0.42
       DOS:  cpu time    0.00: real time    0.00
    CHARGE:  cpu time    0.10: real time    0.10
    MIXING:  cpu time    0.03: real time    0.03
    --------------------------------------------
      LOOP:  cpu time    1.32: real time    1.35

 eigenvalue-minimisations  :    24
 total energy-change (2. order) :-0.6500366E-02  (-0.3017795E-03)
 number of electron      14.0000002 magnetization 
 augmentation part        0.3214850 magnetization 

 Broyden mixing:
  rms(total) = 0.76818E-02    rms(broyden)= 0.76771E-02
  rms(prec ) = 0.12388E-01
  weight for this iteration     100.00

 eigenvalues of (default mixing * dielectric matrix)
  average eigenvalue GAMMA=   1.9678
  4.5183  2.7975  2.1998  1.1829  1.0020  1.0370  1.0370

 Free energy of the ion-electron system (eV)
  ---------------------------------------------------
  alpha Z        PSCENC =         1.51367591
  Ewald energy   TEWEN  =       238.82698518
  -1/2 Hartree   DENC   =      -539.59021646
  -exchange  EXHF       =         0.00000000
  -V(xc)+E(xc)   XCENC  =        45.53927386
  PAW double counting   =       169.72211432     -172.41022252
  entropy T*S    EENTRO =         0.00000000
  eigenvalues    EBANDS =      -152.96929342
  atomic energy  EATOM  =       368.95004178
  ---------------------------------------------------
  free energy    TOTEN  =       -40.41764135 eV

  energy without entropy =      -40.41764135  energy(sigma->0) =      -40.41764135


--------------------------------------------------------------------------------------------------------




----------------------------------------- Iteration    1(  13)  ---------------------------------------


    POTLOK:  cpu time    0.74: real time    0.74
    SETDIJ:  cpu time    0.02: real time    0.02
     EDDAV:  cpu time    0.42: real time    0.42
       DOS:  cpu time    0.00: real time    0.00
    CHARGE:  cpu time    0.10: real time    0.10
    MIXING:  cpu time    0.03: real time    0.03
    --------------------------------------------
      LOOP:  cpu time    1.31: real time    1.33

 eigenvalue-minimisations  :    24
 total energy-change (2. order) :-0.2686896E-02  (-0.1226683E-03)
 number of electron      14.0000002 magnetization 
 augmentation part        0.3218457 magnetization 

 Broyden mixing:
  rms(total) = 0.30902E-02    rms(broyden)= 0.30883E-02
  rms(prec ) = 0.53957E-02
  weight for this iteration     100.00

 eigenvalues of (default mixing * dielectric matrix)
  average eigenvalue GAMMA=   2.1211
  5.0793  2.9164  2.9164  1.7414  1.1613  1.1613  0.9963  0.9963

 Free energy of the ion-electron system (eV)
  ---------------------------------------------------
  alpha Z        PSCENC =         1.51367591
  Ewald energy   TEWEN  =       238.82698518
  -1/2 Hartree   DENC   =      -538.98757112
  -exchange  EXHF       =         0.00000000
  -V(xc)+E(xc)   XCENC  =        45.49100945
  PAW double counting   =       169.06258297     -171.75071245
  entropy T*S    EENTRO =         0.00000000
  eigenvalues    EBANDS =      -153.52633996
  atomic energy  EATOM  =       368.95004178
  ---------------------------------------------------
  free energy    TOTEN  =       -40.42032825 eV

  energy without entropy =      -40.42032825  energy(sigma->0) =      -40.42032825


--------------------------------------------------------------------------------------------------------




----------------------------------------- Iteration    1(  14)  ---------------------------------------


    POTLOK:  cpu time    0.74: real time    0.74
    SETDIJ:  cpu time    0.02: real time    0.02
     EDDAV:  cpu time    0.47: real time    0.47
       DOS:  cpu time    0.00: real time    0.00
    CHARGE:  cpu time    0.10: real time    0.10
    MIXING:  cpu time    0.03: real time    0.03
    --------------------------------------------
      LOOP:  cpu time    1.37: real time    1.60

 eigenvalue-minimisations  :    28
 total energy-change (2. order) :-0.1677996E-02  (-0.2791525E-04)
 number of electron      14.0000002 magnetization 
 augmentation part        0.3217669 magnetization 

 Broyden mixing:
  rms(total) = 0.29746E-02    rms(broyden)= 0.29742E-02
  rms(prec ) = 0.41929E-02
  weight for this iteration     100.00

 eigenvalues of (default mixing * dielectric matrix)
  average eigenvalue GAMMA=   2.1041
  5.5210  3.5733  2.3994  2.2370  1.1142  1.1142  1.0411  1.0411  0.8954

 Free energy of the ion-electron system (eV)
  ---------------------------------------------------
  alpha Z        PSCENC =         1.51367591
  Ewald energy   TEWEN  =       238.82698518
  -1/2 Hartree   DENC   =      -539.12148040
  -exchange  EXHF       =         0.00000000
  -V(xc)+E(xc)   XCENC  =        45.50027805
  PAW double counting   =       169.30242279     -171.99185548
  entropy T*S    EENTRO =         0.00000000
  eigenvalues    EBANDS =      -153.40207407
  atomic energy  EATOM  =       368.95004178
  ---------------------------------------------------
  free energy    TOTEN  =       -40.42200624 eV

  energy without entropy =      -40.42200624  energy(sigma->0) =      -40.42200624


--------------------------------------------------------------------------------------------------------




----------------------------------------- Iteration    1(  15)  ---------------------------------------


    POTLOK:  cpu time    0.74: real time    0.74
    SETDIJ:  cpu time    0.02: real time    0.02
     EDDAV:  cpu time    0.42: real time    0.42
       DOS:  cpu time    0.00: real time    0.00
    CHARGE:  cpu time    0.10: real time    0.10
    MIXING:  cpu time    0.03: real time    0.03
    --------------------------------------------
      LOOP:  cpu time    1.32: real time    1.33

 eigenvalue-minimisations  :    24
 total energy-change (2. order) :-0.2171215E-03  (-0.1353694E-04)
 number of electron      14.0000002 magnetization 
 augmentation part        0.3216793 magnetization 

 Broyden mixing:
  rms(total) = 0.78328E-03    rms(broyden)= 0.78205E-03
  rms(prec ) = 0.11304E-02
  weight for this iteration     100.00

 eigenvalues of (default mixing * dielectric matrix)
  average eigenvalue GAMMA=   2.2307
  5.9607  3.9337  2.7154  2.4510  2.0251  1.0773  1.0773  1.0761  1.0761  0.9142

 Free energy of the ion-electron system (eV)
  ---------------------------------------------------
  alpha Z        PSCENC =         1.51367591
  Ewald energy   TEWEN  =       238.82698518
  -1/2 Hartree   DENC   =      -539.11576040
  -exchange  EXHF       =         0.00000000
  -V(xc)+E(xc)   XCENC  =        45.49531957
  PAW double counting   =       169.22541090     -171.91606478
  entropy T*S    EENTRO =         0.00000000
  eigenvalues    EBANDS =      -153.40183152
  atomic energy  EATOM  =       368.95004178
  ---------------------------------------------------
  free energy    TOTEN  =       -40.42222337 eV

  energy without entropy =      -40.42222337  energy(sigma->0) =      -40.42222337


--------------------------------------------------------------------------------------------------------




----------------------------------------- Iteration    1(  16)  ---------------------------------------


    POTLOK:  cpu time    0.76: real time    0.76
    SETDIJ:  cpu time    0.02: real time    0.02
     EDDAV:  cpu time    0.47: real time    0.47
       DOS:  cpu time    0.00: real time    0.00
    CHARGE:  cpu time    0.10: real time    0.10
    MIXING:  cpu time    0.03: real time    0.03
    --------------------------------------------
      LOOP:  cpu time    1.38: real time    1.40

 eigenvalue-minimisations  :    28
 total energy-change (2. order) :-0.1412150E-03  (-0.1855703E-05)
 number of electron      14.0000002 magnetization 
 augmentation part        0.3216731 magnetization 

 Broyden mixing:
  rms(total) = 0.35336E-03    rms(broyden)= 0.35325E-03
  rms(prec ) = 0.54790E-03
  weight for this iteration     100.00

 eigenvalues of (default mixing * dielectric matrix)
  average eigenvalue GAMMA=   2.2145
  6.1294  4.2671  2.7170  2.7170  2.1603  1.0519  1.0519  1.1834  1.1834  0.9894
  0.9081

 Free energy of the ion-electron system (eV)
  ---------------------------------------------------
  alpha Z        PSCENC =         1.51367591
  Ewald energy   TEWEN  =       238.82698518
  -1/2 Hartree   DENC   =      -539.13377915
  -exchange  EXHF       =         0.00000000
  -V(xc)+E(xc)   XCENC  =        45.49696480
  PAW double counting   =       169.23447870     -171.92479064
  entropy T*S    EENTRO =         0.00000000
  eigenvalues    EBANDS =      -153.38594117
  atomic energy  EATOM  =       368.95004178
  ---------------------------------------------------
  free energy    TOTEN  =       -40.42236458 eV

  energy without entropy =      -40.42236458  energy(sigma->0) =      -40.42236458


--------------------------------------------------------------------------------------------------------




----------------------------------------- Iteration    1(  17)  ---------------------------------------


    POTLOK:  cpu time    0.77: real time    0.77
    SETDIJ:  cpu time    0.02: real time    0.02
     EDDAV:  cpu time    0.42: real time    0.42
       DOS:  cpu time    0.00: real time    0.00
    --------------------------------------------
      LOOP:  cpu time    1.21: real time    1.23

 eigenvalue-minimisations  :    24
 total energy-change (2. order) :-0.1666849E-04  (-0.2613420E-06)
 number of electron      14.0000002 magnetization 
 augmentation part        0.3216731 magnetization 

 Free energy of the ion-electron system (eV)
  ---------------------------------------------------
  alpha Z        PSCENC =         1.51367591
  Ewald energy   TEWEN  =       238.82698518
  -1/2 Hartree   DENC   =      -539.12098259
  -exchange  EXHF       =         0.00000000
  -V(xc)+E(xc)   XCENC  =        45.49639121
  PAW double counting   =       169.22690545     -171.91705412
  entropy T*S    EENTRO =         0.00000000
  eigenvalues    EBANDS =      -153.39834408
  atomic energy  EATOM  =       368.95004178
  ---------------------------------------------------
  free energy    TOTEN  =       -40.42238125 eV

  energy without entropy =      -40.42238125  energy(sigma->0) =      -40.42238125


--------------------------------------------------------------------------------------------------------




 average (electrostatic) potential at core
  the test charge radii are     0.5201  0.6991
  (the norm of the test charge is              1.0000)
       1 -41.0431       2 -41.0433       3 -41.0433       4 -41.0431       5 -41.0433
       6 -41.0433       7 -57.7799       8 -57.7799
 
 
 
 E-fermi :  -6.7230     XC(G=0):  -1.7762     alpha+bet : -0.7157


 k-point   1 :       0.0000    0.0000    0.0000
  band No.  band energies     occupation 
      1     -18.1437      2.00000
      2     -14.5952      2.00000
      3     -10.0872      2.00000
      4     -10.0867      2.00000
      5      -8.4342      2.00000
      6      -7.6767      2.00000
      7      -7.6753      2.00000
      8      -0.5571      0.00000
      9       1.3825      0.00000
     10       1.4178      0.00000
     11       1.4466      0.00000
     12       1.5397      0.00000


--------------------------------------------------------------------------------------------------------


 soft charge-density along one line, spin component           1
         0         1         2         3         4         5         6         7         8         9
 total charge-density along one line
 
 pseudopotential strength for first ion, spin component:           1
 -2.335  -0.010   0.002   0.001   0.000
 -0.010   0.049   0.002   0.001   0.000
  0.002   0.002  -0.335   0.002   0.000
  0.001   0.001   0.002  -0.339   0.000
  0.000   0.000   0.000   0.000  -0.340
 total augmentation occupancy for first ion, spin component:           1
  1.757  -0.624  -0.268  -0.106   0.000
 -0.624   0.279   0.108   0.043   0.000
 -0.268   0.108   0.045   0.014   0.000
 -0.106   0.043   0.014   0.014   0.000
  0.000   0.000   0.000   0.000   0.009


------------------------ aborting loop because EDIFF is reached ----------------------------------------


    CHARGE:  cpu time    0.10: real time    0.10
    FORLOC:  cpu time    0.10: real time    0.10
    FORNL :  cpu time    0.10: real time    0.10
    STRESS:  cpu time    0.27: real time    0.27
    FORHAR:  cpu time    0.27: real time    0.27
    MIXING:  cpu time    0.04: real time    0.04

  FORCE on cell =-STRESS in cart. coord.  units (eV):
  Direction    XX          YY          ZZ          XY          YZ          ZX
  --------------------------------------------------------------------------------------
  Alpha Z     1.51368     1.51368     1.51368
  Ewald      17.85181    17.85136   203.12363     0.00000    -0.16171     0.00000
  Hartree   131.12828   131.12458   276.86230     0.00000    -0.12567     0.00000
  E(xc)     -48.07746   -48.07751   -48.01398     0.00000     0.00006     0.00000
  Local    -259.74734  -259.73977  -597.13799     0.00000     0.28521     0.00000
  n-local   -26.42044   -26.41804   -25.10096     0.00000    -0.00048     0.00000
  augment    -0.01320    -0.01397     0.04925     0.00000    -0.00005     0.00000
  Kinetic   182.85815   182.85266   187.69797     0.00000     0.00262     0.00000
  Fock        0.00000     0.00000     0.00000     0.00000     0.00000     0.00000
  -------------------------------------------------------------------------------------
  Total      -0.90653    -0.90702    -1.00610     0.00000    -0.00002     0.00000
  in kB      -2.83677    -2.83829    -3.14834     0.00000    -0.00005     0.00000
  external pressure =       -2.94 kB  Pullay stress =        0.00 kB


 VOLUME and BASIS-vectors are now :
 -----------------------------------------------------------------------------
  energy-cutoff  :      350.00
  volume of cell :      512.00
      direct lattice vectors                 reciprocal lattice vectors
     8.000000000  0.000000000  0.000000000     0.125000000  0.000000000  0.000000000
     0.000000000  8.000000000  0.000000000     0.000000000  0.125000000  0.000000000
     0.000000000  0.000000000  8.000000000     0.000000000  0.000000000  0.125000000

  length of vectors
     8.000000000  8.000000000  8.000000000     0.125000000  0.125000000  0.125000000


 FORCES acting on ions
    electron-ion (+dipol)            ewald-force                    non-local-force                 convergence-correction
 -----------------------------------------------------------------------------------------------
   0.213E-15 -.537E+02 -.292E+02   -.122E-14 0.591E+02 0.314E+02   -.414E-24 -.514E+01 -.203E+01   0.947E-14 -.267E-03 -.358E-03
   0.465E+02 0.269E+02 -.292E+02   -.512E+02 -.296E+02 0.314E+02   0.445E+01 0.257E+01 -.203E+01   0.238E-03 0.120E-03 -.349E-03
   -.465E+02 0.269E+02 -.292E+02   0.512E+02 -.296E+02 0.314E+02   -.445E+01 0.257E+01 -.203E+01   -.238E-03 0.120E-03 -.349E-03
   0.233E-16 0.537E+02 0.292E+02   -.110E-14 -.591E+02 -.314E+02   0.827E-24 0.514E+01 0.203E+01   0.665E-14 0.267E-03 0.358E-03
   0.465E+02 -.269E+02 0.292E+02   -.512E+02 0.296E+02 -.314E+02   0.445E+01 -.257E+01 0.203E+01   0.238E-03 -.120E-03 0.349E-03
   -.465E+02 -.269E+02 0.292E+02   0.512E+02 0.296E+02 -.314E+02   -.445E+01 -.257E+01 0.203E+01   -.238E-03 -.120E-03 0.349E-03
   0.603E-15 -.512E-02 -.735E+02   0.287E-14 0.768E-02 0.735E+02   0.000E+00 0.343E-03 -.259E+00   0.460E-13 -.783E-04 -.177E-02
   0.105E-14 0.512E-02 0.735E+02   0.925E-14 -.768E-02 -.735E+02   0.000E+00 -.343E-03 0.259E+00   0.457E-13 0.783E-04 0.177E-02
 -----------------------------------------------------------------------------------------------
   -.226E-12 0.437E-12 0.122E-11   0.121E-13 -.253E-15 0.000E+00   0.000E+00 -.444E-15 0.000E+00   0.129E-12 0.121E-12 -.465E-13
 
 
 POSITION                                       TOTAL-FORCE (eV/Angst)
 -----------------------------------------------------------------------------------
      0.00000      1.01896      1.15723         0.000000      0.280835      0.137137
      7.11756      7.49052      1.15723        -0.247335     -0.140740      0.140696
      0.88244      7.49052      1.15723         0.247335     -0.140740      0.140696
      0.00000      6.98104      6.84277         0.000000     -0.280835     -0.137137
      7.11756      0.50948      6.84277        -0.247335      0.140740     -0.140696
      0.88244      0.50948      6.84277         0.247335      0.140740     -0.140696
      0.00000      0.00000      0.76221         0.000000      0.002818     -0.284984
      0.00000      0.00000      7.23779         0.000000     -0.002818      0.284984
 -----------------------------------------------------------------------------------
    total drift:                                0.000000      0.000000      0.000000


--------------------------------------------------------------------------------------------------------



  FREE ENERGIE OF THE ION-ELECTRON SYSTEM (eV)
  ---------------------------------------------------
  free  energy   TOTEN  =       -40.422381 eV

  energy  without entropy=      -40.422381  energy(sigma->0) =      -40.422381
 


--------------------------------------------------------------------------------------------------------


    POTLOK:  cpu time    0.79: real time    0.79


--------------------------------------------------------------------------------------------------------




--------------------------------------------------------------------------------------------------------


    WAVPRE:  cpu time    0.17: real time    0.17
    FEWALD:  cpu time    0.00: real time    0.00
    ORTHCH:  cpu time    0.02: real time    0.02
     LOOP+:  cpu time   22.54: real time   23.15


----------------------------------------- Iteration    2(   1)  ---------------------------------------


    POTLOK:  cpu time    0.78: real time    0.78
    SETDIJ:  cpu time    0.02: real time    0.02
     EDDAV:  cpu time    0.42: real time    0.42
       DOS:  cpu time    0.00: real time    0.00
    CHARGE:  cpu time    0.10: real time    0.10
    MIXING:  cpu time    0.02: real time    0.03
    --------------------------------------------
      LOOP:  cpu time    1.34: real time    1.34

 eigenvalue-minimisations  :    24
 total energy-change (2. order) : 0.5072455E-02  (-0.1848319E+00)
 number of electron      14.0000008 magnetization 
 augmentation part        0.3146969 magnetization 

 Broyden mixing:
  rms(total) = 0.48078E-01    rms(broyden)= 0.48025E-01
  rms(prec ) = 0.67601E-01
  weight for this iteration     100.00

 Free energy of the ion-electron system (eV)
  ---------------------------------------------------
  alpha Z        PSCENC =         1.51367591
  Ewald energy   TEWEN  =       234.87209572
  -1/2 Hartree   DENC   =      -537.25703915
  -exchange  EXHF       =         0.00000000
  -V(xc)+E(xc)   XCENC  =        45.36012459
  PAW double counting   =       169.22946162     -171.91957202
  entropy T*S    EENTRO =         0.00000000
  eigenvalues    EBANDS =      -151.16608057
  atomic energy  EATOM  =       368.95004178
  ---------------------------------------------------
  free energy    TOTEN  =       -40.41729213 eV

  energy without entropy =      -40.41729213  energy(sigma->0) =      -40.41729213


--------------------------------------------------------------------------------------------------------




----------------------------------------- Iteration    2(   2)  ---------------------------------------


    POTLOK:  cpu time    0.73: real time    0.73
    SETDIJ:  cpu time    0.02: real time    0.02
     EDDAV:  cpu time    0.47: real time    0.47
       DOS:  cpu time    0.00: real time    0.00
    CHARGE:  cpu time    0.10: real time    0.10
    MIXING:  cpu time    0.03: real time    0.03
    --------------------------------------------
      LOOP:  cpu time    1.34: real time    1.34

 eigenvalue-minimisations  :    28
 total energy-change (2. order) : 0.3644602E-02  (-0.2769031E-02)
 number of electron      14.0000008 magnetization 
 augmentation part        0.3151498 magnetization 

 Broyden mixing:
  rms(total) = 0.26267E-01    rms(broyden)= 0.26263E-01
  rms(prec ) = 0.35323E-01
  weight for this iteration     100.00

 eigenvalues of (default mixing * dielectric matrix)
  average eigenvalue GAMMA=   1.9506
  1.9506

 Free energy of the ion-electron system (eV)
  ---------------------------------------------------
  alpha Z        PSCENC =         1.51367591
  Ewald energy   TEWEN  =       234.87209572
  -1/2 Hartree   DENC   =      -536.30091902
  -exchange  EXHF       =         0.00000000
  -V(xc)+E(xc)   XCENC  =        45.30264199
  PAW double counting   =       166.92721519     -169.60531707
  entropy T*S    EENTRO =         0.00000000
  eigenvalues    EBANDS =      -152.07308201
  atomic energy  EATOM  =       368.95004178
  ---------------------------------------------------
  free energy    TOTEN  =       -40.41364752 eV

  energy without entropy =      -40.41364752  energy(sigma->0) =      -40.41364752


--------------------------------------------------------------------------------------------------------




----------------------------------------- Iteration    2(   3)  ---------------------------------------


    POTLOK:  cpu time    0.71: real time    0.71
    SETDIJ:  cpu time    0.02: real time    0.02
     EDDAV:  cpu time    0.47: real time    0.47
       DOS:  cpu time    0.00: real time    0.00
    CHARGE:  cpu time    0.10: real time    0.10
    MIXING:  cpu time    0.03: real time    0.03
    --------------------------------------------
      LOOP:  cpu time    1.32: real time    1.34

 eigenvalue-minimisations  :    28
 total energy-change (2. order) : 0.1414008E-02  (-0.8333403E-03)
 number of electron      14.0000008 magnetization 
 augmentation part        0.3160400 magnetization 

 Broyden mixing:
  rms(total) = 0.65637E-02    rms(broyden)= 0.65581E-02
  rms(prec ) = 0.93634E-02
  weight for this iteration     100.00

 eigenvalues of (default mixing * dielectric matrix)
  average eigenvalue GAMMA=   1.4682
  1.4682  1.4682

 Free energy of the ion-electron system (eV)
  ---------------------------------------------------
  alpha Z        PSCENC =         1.51367591
  Ewald energy   TEWEN  =       234.87209572
  -1/2 Hartree   DENC   =      -535.54660201
  -exchange  EXHF       =         0.00000000
  -V(xc)+E(xc)   XCENC  =        45.25604131
  PAW double counting   =       164.85520707     -167.52387742
  entropy T*S    EENTRO =         0.00000000
  eigenvalues    EBANDS =      -152.78881587
  atomic energy  EATOM  =       368.95004178
  ---------------------------------------------------
  free energy    TOTEN  =       -40.41223351 eV

  energy without entropy =      -40.41223351  energy(sigma->0) =      -40.41223351


--------------------------------------------------------------------------------------------------------




----------------------------------------- Iteration    2(   4)  ---------------------------------------


    POTLOK:  cpu time    0.72: real time    0.72
    SETDIJ:  cpu time    0.02: real time    0.02
     EDDAV:  cpu time    0.52: real time    0.52
       DOS:  cpu time    0.00: real time    0.00
    --------------------------------------------
      LOOP:  cpu time    1.26: real time    1.27

 eigenvalue-minimisations  :    32
 total energy-change (2. order) : 0.4066431E-05  (-0.8652531E-04)
 number of electron      14.0000008 magnetization 
 augmentation part        0.3160400 magnetization 

 Free energy of the ion-electron system (eV)
  ---------------------------------------------------
  alpha Z        PSCENC =         1.51367591
  Ewald energy   TEWEN  =       234.87209572
  -1/2 Hartree   DENC   =      -535.73052926
  -exchange  EXHF       =         0.00000000
  -V(xc)+E(xc)   XCENC  =        45.26396469
  PAW double counting   =       165.06312589     -167.73475789
  entropy T*S    EENTRO =         0.00000000
  eigenvalues    EBANDS =      -152.60984627
  atomic energy  EATOM  =       368.95004178
  ---------------------------------------------------
  free energy    TOTEN  =       -40.41222945 eV

  energy without entropy =      -40.41222945  energy(sigma->0) =      -40.41222945


--------------------------------------------------------------------------------------------------------




 average (electrostatic) potential at core
  the test charge radii are     0.5201  0.6991
  (the norm of the test charge is              1.0000)
       1 -40.8985       2 -40.8962       3 -40.8962       4 -40.8985       5 -40.8962
       6 -40.8962       7 -57.8604       8 -57.8604
 
 
 
 E-fermi :  -6.5820     XC(G=0):  -1.7020     alpha+bet : -0.7157


 k-point   1 :       0.0000    0.0000    0.0000
  band No.  band energies     occupation 
      1     -18.1725      2.00000
      2     -14.4243      2.00000
      3     -10.0328      2.00000
      4     -10.0318      2.00000
      5      -8.6046      2.00000
      6      -7.5210      2.00000
      7      -7.5179      2.00000
      8      -0.5102      0.00000
      9       1.3838      0.00000
     10       1.4577      0.00000
     11       1.4656      0.00000
     12       1.5313      0.00000


--------------------------------------------------------------------------------------------------------


 soft charge-density along one line, spin component           1
         0         1         2         3         4         5         6         7         8         9
 total charge-density along one line
 
 pseudopotential strength for first ion, spin component:           1
 -2.333  -0.010   0.002   0.001   0.000
 -0.010   0.049   0.002   0.001   0.000
  0.002   0.002  -0.337   0.002   0.000
  0.001   0.001   0.002  -0.340   0.000
  0.000   0.000   0.000   0.000  -0.341
 total augmentation occupancy for first ion, spin component:           1
  1.714  -0.611  -0.251  -0.104   0.000
 -0.611   0.274   0.103   0.042   0.000
 -0.251   0.103   0.041   0.014   0.000
 -0.104   0.042   0.014   0.013   0.000
  0.000   0.000   0.000   0.000   0.008


------------------------ aborting loop because EDIFF is reached ----------------------------------------


    CHARGE:  cpu time    0.10: real time    0.10
    FORLOC:  cpu time    0.10: real time    0.10
    FORNL :  cpu time    0.10: real time    0.10
    STRESS:  cpu time    0.27: real time    0.27
    FORHAR:  cpu time    0.27: real time    0.27
    MIXING:  cpu time    0.03: real time    0.03

  FORCE on cell =-STRESS in cart. coord.  units (eV):
  Direction    XX          YY          ZZ          XY          YZ          ZX
  --------------------------------------------------------------------------------------
  Alpha Z     1.51368     1.51368     1.51368
  Ewald      14.26611    14.29751   206.30827     0.00000    -0.12371     0.00000
  Hartree   130.49528   130.47605   274.56433     0.00000    -0.11952     0.00000
  E(xc)     -47.83210   -47.83225   -47.74315     0.00000     0.00010     0.00000
  Local    -256.68147  -256.67048  -596.63699     0.00000     0.24946     0.00000
  n-local   -25.73855   -25.73800   -24.60626     0.00001    -0.00127     0.00000
  augment    -0.00447    -0.00474     0.03914     0.00000    -0.00012     0.00000
  Kinetic   181.41658   181.41541   185.89951    -0.00002     0.00232     0.00000
  Fock        0.00000     0.00000     0.00000     0.00000     0.00000     0.00000
  -------------------------------------------------------------------------------------
  Total      -2.56494    -2.54283    -0.66147     0.00000     0.00726     0.00000
  in kB      -8.02634    -7.95715    -2.06991     0.00000     0.02272     0.00000
  external pressure =       -6.02 kB  Pullay stress =        0.00 kB


 VOLUME and BASIS-vectors are now :
 -----------------------------------------------------------------------------
  energy-cutoff  :      350.00
  volume of cell :      512.00
      direct lattice vectors                 reciprocal lattice vectors
     8.000000000  0.000000000  0.000000000     0.125000000  0.000000000  0.000000000
     0.000000000  8.000000000  0.000000000     0.000000000  0.125000000  0.000000000
     0.000000000  0.000000000  8.000000000     0.000000000  0.000000000  0.125000000

  length of vectors
     8.000000000  8.000000000  8.000000000     0.125000000  0.125000000  0.125000000


 FORCES acting on ions
    electron-ion (+dipol)            ewald-force                    non-local-force                 convergence-correction
 -----------------------------------------------------------------------------------------------
   -.385E-15 -.525E+02 -.293E+02   0.525E-15 0.571E+02 0.312E+02   0.000E+00 -.484E+01 -.200E+01   -.178E-14 -.907E-02 -.202E-02
   0.455E+02 0.263E+02 -.293E+02   -.495E+02 -.286E+02 0.312E+02   0.418E+01 0.242E+01 -.199E+01   0.786E-02 0.458E-02 -.210E-02
   -.455E+02 0.263E+02 -.293E+02   0.495E+02 -.286E+02 0.312E+02   -.418E+01 0.242E+01 -.199E+01   -.786E-02 0.458E-02 -.210E-02
   0.117E-15 0.525E+02 0.293E+02   0.346E-15 -.571E+02 -.312E+02   0.000E+00 0.484E+01 0.200E+01   0.356E-14 0.907E-02 0.202E-02
   0.455E+02 -.263E+02 0.293E+02   -.495E+02 0.286E+02 -.312E+02   0.418E+01 -.242E+01 0.199E+01   0.786E-02 -.458E-02 0.210E-02
   -.455E+02 -.263E+02 0.293E+02   0.495E+02 0.286E+02 -.312E+02   -.418E+01 -.242E+01 0.199E+01   -.786E-02 -.458E-02 0.210E-02
   0.163E-14 -.606E-03 -.767E+02   -.620E-14 -.152E-02 0.774E+02   0.847E-21 -.660E-02 0.340E+00   -.160E-13 -.183E-03 0.259E-01
   0.259E-14 0.606E-03 0.767E+02   0.805E-15 0.152E-02 -.774E+02   -.847E-21 0.660E-02 -.340E+00   0.668E-14 0.183E-03 -.259E-01
 -----------------------------------------------------------------------------------------------
   0.828E-12 -.191E-12 -.284E-12   0.171E-14 0.412E-14 -.142E-13   0.000E+00 0.133E-14 -.500E-15   -.133E-15 0.230E-12 0.156E-12
 
 
 POSITION                                       TOTAL-FORCE (eV/Angst)
 -----------------------------------------------------------------------------------
      0.00000      1.03251      1.16384         0.000000     -0.256792     -0.106042
      7.10562      7.48373      1.16402         0.228663      0.134195     -0.106341
      0.89438      7.48373      1.16402        -0.228663      0.134195     -0.106341
      0.00000      6.96749      6.83616         0.000000      0.256792      0.106042
      7.10562      0.51627      6.83598         0.228663     -0.134195      0.106341
      0.89438      0.51627      6.83598        -0.228663     -0.134195      0.106341
      0.00000      0.00014      0.74846         0.000000     -0.008904      1.069841
      0.00000     -0.00014      7.25154         0.000000      0.008904     -1.069841
 -----------------------------------------------------------------------------------
    total drift:                                0.000000      0.000000      0.000000


--------------------------------------------------------------------------------------------------------



  FREE ENERGIE OF THE ION-ELECTRON SYSTEM (eV)
  ---------------------------------------------------
  free  energy   TOTEN  =       -40.412229 eV

  energy  without entropy=      -40.412229  energy(sigma->0) =      -40.412229
 
 d Force =-0.9259058E-02[-0.552E-01, 0.367E-01]  d Energy =-0.1015180E-01 0.893E-03
 d Force = 0.3954767E+01[ 0.381E+01, 0.410E+01]  d Ewald  = 0.3954889E+01-0.122E-03


--------------------------------------------------------------------------------------------------------


    POTLOK:  cpu time    0.74: real time    0.74


--------------------------------------------------------------------------------------------------------


 Steepest descent step on ions:
 trial-energy change:    0.010152  1 .order    0.009259   -0.036708    0.055226
  (g-gl).g = 0.367E-01      g.g   = 0.367E-01  gl.gl    = 0.000E+00
 g(Force)  = 0.367E-01   g(Stress)= 0.000E+00 ortho     = 0.000E+00
 gamma     =   0.00000
 trial     =   1.00000
 opt step  =   0.38548  (harmonic =   0.39929) maximal distance =0.00529980
 next E    =   -40.429405   (d E  =  -0.00702)


--------------------------------------------------------------------------------------------------------


    WAVPRE:  cpu time    0.17: real time    0.18
    FEWALD:  cpu time    0.00: real time    0.00
    ORTHCH:  cpu time    0.02: real time    0.02
     LOOP+:  cpu time    7.10: real time    7.23


----------------------------------------- Iteration    3(   1)  ---------------------------------------


    POTLOK:  cpu time    0.77: real time    0.77
    SETDIJ:  cpu time    0.02: real time    0.02
     EDDAV:  cpu time    0.44: real time    0.44
       DOS:  cpu time    0.00: real time    0.00
    CHARGE:  cpu time    0.11: real time    0.11
    MIXING:  cpu time    0.03: real time    0.03
    --------------------------------------------
      LOOP:  cpu time    1.37: real time    1.38

 eigenvalue-minimisations  :    24
 total energy-change (2. order) :-0.1898530E-01  (-0.7088822E-01)
 number of electron      14.0000005 magnetization 
 augmentation part        0.3199796 magnetization 

 Broyden mixing:
  rms(total) = 0.29232E-01    rms(broyden)= 0.29202E-01
  rms(prec ) = 0.40989E-01
  weight for this iteration     100.00

 Free energy of the ion-electron system (eV)
  ---------------------------------------------------
  alpha Z        PSCENC =         1.51367591
  Ewald energy   TEWEN  =       237.26915890
  -1/2 Hartree   DENC   =      -536.76043313
  -exchange  EXHF       =         0.00000000
  -V(xc)+E(xc)   XCENC  =        45.33935147
  PAW double counting   =       164.70962539     -167.38080335
  entropy T*S    EENTRO =         0.00000000
  eigenvalues    EBANDS =      -154.07183578
  atomic energy  EATOM  =       368.95004178
  ---------------------------------------------------
  free energy    TOTEN  =       -40.43121881 eV

  energy without entropy =      -40.43121881  energy(sigma->0) =      -40.43121881


--------------------------------------------------------------------------------------------------------




----------------------------------------- Iteration    3(   2)  ---------------------------------------


    POTLOK:  cpu time    0.78: real time    0.78
    SETDIJ:  cpu time    0.02: real time    0.02
     EDDAV:  cpu time    0.50: real time    0.50
       DOS:  cpu time    0.00: real time    0.00
    CHARGE:  cpu time    0.11: real time    0.11
    MIXING:  cpu time    0.03: real time    0.03
    --------------------------------------------
      LOOP:  cpu time    1.44: real time    1.44

 eigenvalue-minimisations  :    28
 total energy-change (2. order) : 0.1155834E-02  (-0.1041291E-02)
 number of electron      14.0000005 magnetization 
 augmentation part        0.3198707 magnetization 

 Broyden mixing:
  rms(total) = 0.16623E-01    rms(broyden)= 0.16620E-01
  rms(prec ) = 0.22463E-01
  weight for this iteration     100.00

 eigenvalues of (default mixing * dielectric matrix)
  average eigenvalue GAMMA=   2.0814
  2.0814

 Free energy of the ion-electron system (eV)
  ---------------------------------------------------
  alpha Z        PSCENC =         1.51367591
  Ewald energy   TEWEN  =       237.26915890
  -1/2 Hartree   DENC   =      -537.32005654
  -exchange  EXHF       =         0.00000000
  -V(xc)+E(xc)   XCENC  =        45.37373313
  PAW double counting   =       166.05714185     -168.73522246
  entropy T*S    EENTRO =         0.00000000
  eigenvalues    EBANDS =      -153.53853555
  atomic energy  EATOM  =       368.95004178
  ---------------------------------------------------
  free energy    TOTEN  =       -40.43006298 eV

  energy without entropy =      -40.43006298  energy(sigma->0) =      -40.43006298


--------------------------------------------------------------------------------------------------------




----------------------------------------- Iteration    3(   3)  ---------------------------------------


    POTLOK:  cpu time    0.81: real time    0.81
    SETDIJ:  cpu time    0.02: real time    0.02
     EDDAV:  cpu time    0.44: real time    0.44
       DOS:  cpu time    0.00: real time    0.00
    CHARGE:  cpu time    0.11: real time    0.11
    MIXING:  cpu time    0.03: real time    0.03
    --------------------------------------------
      LOOP:  cpu time    1.42: real time    1.43

 eigenvalue-minimisations  :    24
 total energy-change (2. order) : 0.5244072E-03  (-0.3958322E-03)
 number of electron      14.0000005 magnetization 
 augmentation part        0.3192499 magnetization 

 Broyden mixing:
  rms(total) = 0.44937E-02    rms(broyden)= 0.44901E-02
  rms(prec ) = 0.67457E-02
  weight for this iteration     100.00

 eigenvalues of (default mixing * dielectric matrix)
  average eigenvalue GAMMA=   1.4242
  1.2065  1.6418

 Free energy of the ion-electron system (eV)
  ---------------------------------------------------
  alpha Z        PSCENC =         1.51367591
  Ewald energy   TEWEN  =       237.26915890
  -1/2 Hartree   DENC   =      -537.84702251
  -exchange  EXHF       =         0.00000000
  -V(xc)+E(xc)   XCENC  =        45.40651132
  PAW double counting   =       167.45135617     -170.13614924
  entropy T*S    EENTRO =         0.00000000
  eigenvalues    EBANDS =      -153.03711090
  atomic energy  EATOM  =       368.95004178
  ---------------------------------------------------
  free energy    TOTEN  =       -40.42953857 eV

  energy without entropy =      -40.42953857  energy(sigma->0) =      -40.42953857


--------------------------------------------------------------------------------------------------------




----------------------------------------- Iteration    3(   4)  ---------------------------------------


    POTLOK:  cpu time    0.81: real time    0.81
    SETDIJ:  cpu time    0.02: real time    0.02
     EDDAV:  cpu time    0.44: real time    0.45
       DOS:  cpu time    0.00: real time    0.00
    --------------------------------------------
      LOOP:  cpu time    1.28: real time    1.33

 eigenvalue-minimisations  :    24
 total energy-change (2. order) : 0.4277667E-04  (-0.4474891E-04)
 number of electron      14.0000005 magnetization 
 augmentation part        0.3192499 magnetization 

 Free energy of the ion-electron system (eV)
  ---------------------------------------------------
  alpha Z        PSCENC =         1.51367591
  Ewald energy   TEWEN  =       237.26915890
  -1/2 Hartree   DENC   =      -537.69492846
  -exchange  EXHF       =         0.00000000
  -V(xc)+E(xc)   XCENC  =        45.39911825
  PAW double counting   =       167.21133115     -169.89386276
  entropy T*S    EENTRO =         0.00000000
  eigenvalues    EBANDS =      -153.18403057
  atomic energy  EATOM  =       368.95004178
  ---------------------------------------------------
  free energy    TOTEN  =       -40.42949579 eV

  energy without entropy =      -40.42949579  energy(sigma->0) =      -40.42949579


--------------------------------------------------------------------------------------------------------




 average (electrostatic) potential at core
  the test charge radii are     0.5201  0.6991
  (the norm of the test charge is              1.0000)
       1 -40.9950       2 -40.9941       3 -40.9941       4 -40.9950       5 -40.9941
       6 -40.9941       7 -57.8168       8 -57.8168
 
 
 
 E-fermi :  -6.6662     XC(G=0):  -1.7959     alpha+bet : -0.7157


 k-point   1 :       0.0000    0.0000    0.0000
  band No.  band energies     occupation 
      1     -18.1587      2.00000
      2     -14.5381      2.00000
      3     -10.0722      2.00000
      4     -10.0721      2.00000
      5      -8.5049      2.00000
      6      -7.6241      2.00000
      7      -7.6220      2.00000
      8      -0.5769      0.00000
      9       1.3605      0.00000
     10       1.3841      0.00000
     11       1.4215      0.00000
     12       1.5120      0.00000


--------------------------------------------------------------------------------------------------------


 soft charge-density along one line, spin component           1
         0         1         2         3         4         5         6         7         8         9
 total charge-density along one line
 
 pseudopotential strength for first ion, spin component:           1
 -2.334  -0.010   0.002   0.001   0.000
 -0.010   0.049   0.002   0.001   0.000
  0.002   0.002  -0.336   0.002   0.000
  0.001   0.001   0.002  -0.339   0.000
  0.000   0.000   0.000   0.000  -0.340
 total augmentation occupancy for first ion, spin component:           1
  1.741  -0.619  -0.261  -0.105   0.000
 -0.619   0.277   0.106   0.042   0.000
 -0.261   0.106   0.043   0.014   0.000
 -0.105   0.042   0.014   0.014   0.000
  0.000   0.000   0.000   0.000   0.009


------------------------ aborting loop because EDIFF is reached ----------------------------------------


    CHARGE:  cpu time    0.11: real time    0.11
    FORLOC:  cpu time    0.11: real time    0.11
    FORNL :  cpu time    0.10: real time    0.11
    STRESS:  cpu time    0.27: real time    0.27
    FORHAR:  cpu time    0.29: real time    0.29
    MIXING:  cpu time    0.03: real time    0.03

  FORCE on cell =-STRESS in cart. coord.  units (eV):
  Direction    XX          YY          ZZ          XY          YZ          ZX
  --------------------------------------------------------------------------------------
  Alpha Z     1.51368     1.51368     1.51368
  Ewald      16.45229    16.46467   204.35200     0.00000    -0.14736     0.00000
  Hartree   130.89254   130.88261   275.99821     0.00000    -0.12353     0.00000
  E(xc)     -47.97386   -47.97394   -47.90087     0.00000     0.00007     0.00000
  Local    -258.57592  -258.56686  -596.95993     0.00000     0.27211     0.00000
  n-local   -26.15740   -26.15591   -24.91402     0.00000    -0.00085     0.00000
  augment    -0.00963    -0.01023     0.04597     0.00000    -0.00008     0.00000
  Kinetic   182.30797   182.30479   187.02685     0.00001     0.00248     0.00000
  Fock        0.00000     0.00000     0.00000     0.00000     0.00000     0.00000
  -------------------------------------------------------------------------------------
  Total      -1.55033    -1.54119    -0.83812     0.00000     0.00284     0.00000
  in kB      -4.85139    -4.82277    -2.62268     0.00000     0.00890     0.00000
  external pressure =       -4.10 kB  Pullay stress =        0.00 kB


 VOLUME and BASIS-vectors are now :
[...]
  0.000   0.000   0.000   0.000  -0.340
 total augmentation occupancy for first ion, spin component:           1
  1.733  -0.618  -0.260  -0.103   0.000
 -0.618   0.276   0.106   0.042   0.000
 -0.260   0.106   0.043   0.014   0.000
 -0.103   0.042   0.014   0.013   0.000
  0.000   0.000   0.000   0.000   0.009


------------------------ aborting loop because EDIFF is reached ----------------------------------------


    CHARGE:  cpu time    0.11: real time    0.11
    FORLOC:  cpu time    0.11: real time    0.11
    FORNL :  cpu time    0.10: real time    0.10
    STRESS:  cpu time    0.27: real time    0.27
    FORHAR:  cpu time    0.29: real time    0.29
    MIXING:  cpu time    0.03: real time    0.03

  FORCE on cell =-STRESS in cart. coord.  units (eV):
  Direction    XX          YY          ZZ          XY          YZ          ZX
  --------------------------------------------------------------------------------------
  Alpha Z     1.51368     1.51368     1.51368
  Ewald      16.49876    16.46000   200.79488     0.00000    -0.16814     0.00000
  Hartree   129.92826   129.90854   274.75972     0.00000    -0.13004     0.00000
  E(xc)     -47.87038   -47.87067   -47.81393     0.00000     0.00002     0.00000
  Local    -257.49293  -257.43410  -592.69939     0.00000     0.29645     0.00000
  n-local   -25.97569   -25.97388   -24.71152     0.00001    -0.00112     0.00000
  augment    -0.00229    -0.00255     0.05549     0.00000    -0.00005     0.00000
  Kinetic   181.56524   181.57171   186.56968    -0.00002     0.00610     0.00000
  Fock        0.00000     0.00000     0.00000     0.00000     0.00000     0.00000
  -------------------------------------------------------------------------------------
  Total      -1.83535    -1.82727    -1.53140     0.00000     0.00322     0.00000
  in kB      -5.74327    -5.71800    -4.79214     0.00000     0.01009     0.00000
  external pressure =       -5.42 kB  Pullay stress =        0.00 kB


 VOLUME and BASIS-vectors are now :
 -----------------------------------------------------------------------------
  energy-cutoff  :      350.00
  volume of cell :      512.00
      direct lattice vectors                 reciprocal lattice vectors
     8.000000000  0.000000000  0.000000000     0.125000000  0.000000000  0.000000000
     0.000000000  8.000000000  0.000000000     0.000000000  0.125000000  0.000000000
     0.000000000  0.000000000  8.000000000     0.000000000  0.000000000  0.125000000

  length of vectors
     8.000000000  8.000000000  8.000000000     0.125000000  0.125000000  0.125000000


 FORCES acting on ions
    electron-ion (+dipol)            ewald-force                    non-local-force                 convergence-correction
 -----------------------------------------------------------------------------------------------
   0.366E-15 -.531E+02 -.288E+02   -.615E-15 0.580E+02 0.308E+02   0.000E+00 -.500E+01 -.197E+01   0.385E-14 0.559E-02 0.196E-02
   0.460E+02 0.266E+02 -.288E+02   -.503E+02 -.291E+02 0.308E+02   0.433E+01 0.250E+01 -.197E+01   -.490E-02 -.280E-02 0.196E-02
   -.460E+02 0.266E+02 -.288E+02   0.503E+02 -.291E+02 0.308E+02   -.433E+01 0.250E+01 -.197E+01   0.490E-02 -.280E-02 0.196E-02
   0.717E-15 0.531E+02 0.288E+02   0.258E-15 -.580E+02 -.308E+02   0.000E+00 0.500E+01 0.197E+01   0.451E-15 -.559E-02 -.196E-02
   0.460E+02 -.266E+02 0.288E+02   -.503E+02 0.291E+02 -.308E+02   0.433E+01 -.250E+01 0.197E+01   -.490E-02 0.280E-02 -.196E-02
   -.460E+02 -.266E+02 0.288E+02   0.503E+02 0.291E+02 -.308E+02   -.433E+01 -.250E+01 0.197E+01   0.490E-02 0.280E-02 -.196E-02
   0.736E-15 0.148E-01 -.734E+02   0.957E-15 -.139E-01 0.735E+02   0.000E+00 0.175E-02 -.209E+00   0.209E-13 0.355E-03 0.801E-02
   0.254E-14 -.148E-01 0.734E+02   0.807E-15 0.139E-01 -.735E+02   0.000E+00 -.175E-02 0.209E+00   0.702E-14 -.355E-03 -.801E-02
 -----------------------------------------------------------------------------------------------
   0.650E-12 -.411E-14 0.118E-11   -.534E-14 -.460E-14 0.000E+00   0.000E+00 0.888E-15 -.694E-15   0.460E-13 0.732E-13 -.293E-12
 
 
 POSITION                                       TOTAL-FORCE (eV/Angst)
 -----------------------------------------------------------------------------------
      0.00000      1.02925      1.16273         0.000000     -0.045875      0.018539
      7.10853      7.48545      1.16291         0.038584      0.023621      0.020494
      0.89147      7.48545      1.16291        -0.038584      0.023621      0.020494
      0.00000      6.97075      6.83727         0.000000      0.045875     -0.018539
      7.10853      0.51455      6.83709         0.038584     -0.023621     -0.020494
      0.89147      0.51455      6.83709        -0.038584     -0.023621     -0.020494
      0.00000     -0.00003      0.76489         0.000000      0.003019     -0.106938
      0.00000      0.00003      7.23511         0.000000     -0.003019      0.106938
 -----------------------------------------------------------------------------------
    total drift:                                0.000000      0.000000      0.000000


--------------------------------------------------------------------------------------------------------



  FREE ENERGIE OF THE ION-ELECTRON SYSTEM (eV)
  ---------------------------------------------------
  free  energy   TOTEN  =       -40.431359 eV

  energy  without entropy=      -40.431359  energy(sigma->0) =      -40.431359
 
 d Force = 0.1928617E-02[-0.273E-02, 0.658E-02]  d Energy = 0.1863589E-02 0.650E-04
 d Force = 0.3515406E+01[ 0.349E+01, 0.354E+01]  d Ewald  = 0.3515321E+01 0.855E-04


--------------------------------------------------------------------------------------------------------


    POTLOK:  cpu time    0.83: real time    0.83


--------------------------------------------------------------------------------------------------------


 Conjugate gradient step on ions:
 trial-energy change:   -0.001864  1 .order   -0.001929   -0.006582    0.002725
  (g-gl).g = 0.755E-02      g.g   = 0.751E-02  gl.gl    = 0.367E-01
 g(Force)  = 0.751E-02   g(Stress)= 0.000E+00 ortho     =-0.367E-04
 gamma     =   0.20565
 trial     =   0.87710
 opt step  =   0.62029  (harmonic =   0.62029) maximal distance =0.00564086
 next E    =   -40.431823   (d E  =  -0.00233)


--------------------------------------------------------------------------------------------------------


    WAVPRE:  cpu time    0.18: real time    0.18
    FEWALD:  cpu time    0.00: real time    0.00
    ORTHCH:  cpu time    0.02: real time    0.02
     LOOP+:  cpu time    7.48: real time    7.55


----------------------------------------- Iteration    5(   1)  ---------------------------------------


    POTLOK:  cpu time    0.81: real time    0.81
    SETDIJ:  cpu time    0.02: real time    0.02
     EDDAV:  cpu time    0.45: real time    0.45
       DOS:  cpu time    0.00: real time    0.00
    CHARGE:  cpu time    0.11: real time    0.11
    MIXING:  cpu time    0.03: real time    0.03
    --------------------------------------------
      LOOP:  cpu time    1.42: real time    1.42

 eigenvalue-minimisations  :    24
 total energy-change (2. order) :-0.4375418E-03  (-0.3540840E-02)
 number of electron      14.0000007 magnetization 
 augmentation part        0.3177443 magnetization 

 Broyden mixing:
  rms(total) = 0.58785E-02    rms(broyden)= 0.58719E-02
  rms(prec ) = 0.93034E-02
  weight for this iteration     100.00

 Free energy of the ion-electron system (eV)
  ---------------------------------------------------
  alpha Z        PSCENC =         1.51367591
  Ewald energy   TEWEN  =       234.77882390
  -1/2 Hartree   DENC   =      -535.24844049
  -exchange  EXHF       =         0.00000000
  -V(xc)+E(xc)   XCENC  =        45.32200545
  PAW double counting   =       165.49892853     -168.17250952
  entropy T*S    EENTRO =         0.00000000
  eigenvalues    EBANDS =      -153.07440962
  atomic energy  EATOM  =       368.95004178
  ---------------------------------------------------
  free energy    TOTEN  =       -40.43188406 eV

  energy without entropy =      -40.43188406  energy(sigma->0) =      -40.43188406


--------------------------------------------------------------------------------------------------------




----------------------------------------- Iteration    5(   2)  ---------------------------------------


    POTLOK:  cpu time    0.82: real time    0.82
    SETDIJ:  cpu time    0.02: real time    0.02
     EDDAV:  cpu time    0.44: real time    0.45
       DOS:  cpu time    0.00: real time    0.00
    CHARGE:  cpu time    0.11: real time    0.11
    MIXING:  cpu time    0.03: real time    0.03
    --------------------------------------------
      LOOP:  cpu time    1.42: real time    1.43

 eigenvalue-minimisations  :    24
 total energy-change (2. order) : 0.1171484E-03  (-0.3607866E-04)
 number of electron      14.0000007 magnetization 
 augmentation part        0.3176773 magnetization 

 Broyden mixing:
  rms(total) = 0.29431E-02    rms(broyden)= 0.29426E-02
  rms(prec ) = 0.44077E-02
  weight for this iteration     100.00

 eigenvalues of (default mixing * dielectric matrix)
  average eigenvalue GAMMA=   1.9033
  1.9033

 Free energy of the ion-electron system (eV)
  ---------------------------------------------------
  alpha Z        PSCENC =         1.51367591
  Ewald energy   TEWEN  =       234.77882390
  -1/2 Hartree   DENC   =      -535.39326482
  -exchange  EXHF       =         0.00000000
  -V(xc)+E(xc)   XCENC  =        45.32786386
  PAW double counting   =       165.82013295     -168.49552882
  entropy T*S    EENTRO =         0.00000000
  eigenvalues    EBANDS =      -152.93351167
  atomic energy  EATOM  =       368.95004178
  ---------------------------------------------------
  free energy    TOTEN  =       -40.43176691 eV

  energy without entropy =      -40.43176691  energy(sigma->0) =      -40.43176691


--------------------------------------------------------------------------------------------------------




----------------------------------------- Iteration    5(   3)  ---------------------------------------


    POTLOK:  cpu time    0.82: real time    0.82
    SETDIJ:  cpu time    0.02: real time    0.02
     EDDAV:  cpu time    0.50: real time    0.50
       DOS:  cpu time    0.00: real time    0.00
    --------------------------------------------
      LOOP:  cpu time    1.34: real time    1.35

 eigenvalue-minimisations  :    28
 total energy-change (2. order) : 0.7049015E-05  (-0.3466944E-04)
 number of electron      14.0000007 magnetization 
 augmentation part        0.3176773 magnetization 

 Free energy of the ion-electron system (eV)
  ---------------------------------------------------
  alpha Z        PSCENC =         1.51367591
  Ewald energy   TEWEN  =       234.77882390
  -1/2 Hartree   DENC   =      -535.50982611
  -exchange  EXHF       =         0.00000000
  -V(xc)+E(xc)   XCENC  =        45.33265212
  PAW double counting   =       166.09819709     -168.77524209
  entropy T*S    EENTRO =         0.00000000
  eigenvalues    EBANDS =      -152.82008246
  atomic energy  EATOM  =       368.95004178
  ---------------------------------------------------
  free energy    TOTEN  =       -40.43175986 eV

  energy without entropy =      -40.43175986  energy(sigma->0) =      -40.43175986


--------------------------------------------------------------------------------------------------------




 average (electrostatic) potential at core
  the test charge radii are     0.5201  0.6991
  (the norm of the test charge is              1.0000)
       1 -40.9797       2 -40.9798       3 -40.9798       4 -40.9797       5 -40.9798
       6 -40.9798       7 -57.8229       8 -57.8229
 
 
 
 E-fermi :  -6.6359     XC(G=0):  -1.8079     alpha+bet : -0.7157


 k-point   1 :       0.0000    0.0000    0.0000
  band No.  band energies     occupation 
      1     -18.0924      2.00000
      2     -14.5213      2.00000
      3     -10.0428      2.00000
      4     -10.0422      2.00000
      5      -8.4325      2.00000
      6      -7.6398      2.00000
      7      -7.6389      2.00000
      8      -0.5822      0.00000
      9       1.3537      0.00000
     10       1.3843      0.00000
     11       1.4204      0.00000
     12       1.5153      0.00000


--------------------------------------------------------------------------------------------------------


 soft charge-density along one line, spin component           1
         0         1         2         3         4         5         6         7         8         9
 total charge-density along one line
 
 pseudopotential strength for first ion, spin component:           1
 -2.334  -0.010   0.002   0.001   0.000
 -0.010   0.049   0.002   0.001   0.000
  0.002   0.002  -0.336   0.002   0.000
  0.001   0.001   0.002  -0.340   0.000
  0.000   0.000   0.000   0.000  -0.340
 total augmentation occupancy for first ion, spin component:           1
  1.735  -0.618  -0.260  -0.104   0.000
 -0.618   0.277   0.106   0.042   0.000
 -0.260   0.106   0.043   0.014   0.000
 -0.104   0.042   0.014   0.014   0.000
  0.000   0.000   0.000   0.000   0.009


------------------------ aborting loop because EDIFF is reached ----------------------------------------


    CHARGE:  cpu time    0.11: real time    0.11
    FORLOC:  cpu time    0.11: real time    0.11
    FORNL :  cpu time    0.10: real time    0.10
    STRESS:  cpu time    0.27: real time    0.27
    FORHAR:  cpu time    0.29: real time    0.29
    MIXING:  cpu time    0.03: real time    0.03

  FORCE on cell =-STRESS in cart. coord.  units (eV):
  Direction    XX          YY          ZZ          XY          YZ          ZX
  --------------------------------------------------------------------------------------
  Alpha Z     1.51368     1.51368     1.51368
  Ewald      16.48664    16.46288   201.82910     0.00000    -0.16209     0.00000
  Hartree   130.17457   130.15774   275.04379     0.00000    -0.12802     0.00000
  E(xc)     -47.90348   -47.90370   -47.84128     0.00000     0.00004     0.00000
  Local    -257.78316  -257.73915  -593.85937     0.00000     0.28912     0.00000
  n-local   -26.02053   -26.01884   -24.76694     0.00000    -0.00100     0.00000
  augment    -0.00389    -0.00426     0.05334     0.00000    -0.00006     0.00000
  Kinetic   181.72648   181.73004   186.66488    -0.00001     0.00491     0.00000
  Fock        0.00000     0.00000     0.00000     0.00000     0.00000     0.00000
  -------------------------------------------------------------------------------------
  Total      -1.80969    -1.80161    -1.36281     0.00000     0.00289     0.00000
  in kB      -5.66298    -5.63769    -4.26456     0.00000     0.00906     0.00000
  external pressure =       -5.19 kB  Pullay stress =        0.00 kB


 VOLUME and BASIS-vectors are now :
 -----------------------------------------------------------------------------
  energy-cutoff  :      350.00
  volume of cell :      512.00
      direct lattice vectors                 reciprocal lattice vectors
     8.000000000  0.000000000  0.000000000     0.125000000  0.000000000  0.000000000
     0.000000000  8.000000000  0.000000000     0.000000000  0.125000000  0.000000000
     0.000000000  0.000000000  8.000000000     0.000000000  0.000000000  0.125000000

  length of vectors
     8.000000000  8.000000000  8.000000000     0.125000000  0.125000000  0.125000000


 FORCES acting on ions
    electron-ion (+dipol)            ewald-force                    non-local-force                 convergence-correction
 -----------------------------------------------------------------------------------------------
   0.221E-15 -.531E+02 -.289E+02   0.598E-15 0.581E+02 0.310E+02   0.000E+00 -.501E+01 -.198E+01   0.780E-14 -.654E-02 -.482E-02
   0.460E+02 0.266E+02 -.289E+02   -.503E+02 -.291E+02 0.310E+02   0.433E+01 0.250E+01 -.198E+01   0.568E-02 0.326E-02 -.483E-02
   -.460E+02 0.266E+02 -.289E+02   0.503E+02 -.291E+02 0.310E+02   -.433E+01 0.250E+01 -.198E+01   -.568E-02 0.326E-02 -.483E-02
   0.915E-16 0.531E+02 0.289E+02   0.243E-16 -.581E+02 -.310E+02   0.000E+00 0.501E+01 0.198E+01   0.484E-14 0.654E-02 0.482E-02
   0.460E+02 -.266E+02 0.289E+02   -.503E+02 0.291E+02 -.310E+02   0.433E+01 -.250E+01 0.198E+01   0.568E-02 -.326E-02 0.483E-02
   -.460E+02 -.266E+02 0.289E+02   0.503E+02 0.291E+02 -.310E+02   -.433E+01 -.250E+01 0.198E+01   -.568E-02 -.326E-02 0.483E-02
   0.260E-14 0.102E-01 -.738E+02   0.756E-14 -.893E-02 0.740E+02   0.529E-22 0.561E-03 -.147E+00   0.261E-13 -.182E-03 -.247E-01
   -.398E-15 -.102E-01 0.738E+02   0.731E-14 0.893E-02 -.740E+02   -.529E-22 -.561E-03 0.147E+00   0.362E-13 0.182E-03 0.247E-01
 -----------------------------------------------------------------------------------------------
   0.108E-11 0.520E-12 0.455E-12   0.654E-15 0.338E-14 0.142E-13   0.000E+00 0.888E-15 0.000E+00   0.950E-13 -.595E-13 0.388E-13
 
 
 POSITION                                       TOTAL-FORCE (eV/Angst)
 -----------------------------------------------------------------------------------
      0.00000      1.02776      1.16186         0.000000     -0.007226      0.028539
      7.10983      7.48617      1.16201         0.005356      0.004715      0.030583
      0.89017      7.48617      1.16201        -0.005356      0.004715      0.030583
      0.00000      6.97224      6.83814         0.000000      0.007226     -0.028539
      7.10983      0.51383      6.83799         0.005356     -0.004715     -0.030583
      0.89017      0.51383      6.83799        -0.005356     -0.004715     -0.030583
      0.00000     -0.00001      0.76255         0.000000      0.001632     -0.001615
      0.00000      0.00001      7.23745         0.000000     -0.001632      0.001615
 -----------------------------------------------------------------------------------
    total drift:                                0.000000      0.000000      0.000000


--------------------------------------------------------------------------------------------------------



  FREE ENERGIE OF THE ION-ELECTRON SYSTEM (eV)
  ---------------------------------------------------
  free  energy   TOTEN  =       -40.431760 eV

  energy  without entropy=      -40.431760  energy(sigma->0) =      -40.431760
 
 d Force = 0.3546195E-03[-0.887E-04, 0.798E-03]  d Energy = 0.4004794E-03-0.459E-04
 d Force =-0.1024988E+01[-0.103E+01,-0.102E+01]  d Ewald  =-0.1024986E+01-0.211E-05


--------------------------------------------------------------------------------------------------------


    POTLOK:  cpu time    0.84: real time    0.84


--------------------------------------------------------------------------------------------------------




--------------------------------------------------------------------------------------------------------


  
 reached required accuracy - stopping structural energy minimisation
 writing wavefunctions
     LOOP+:  cpu time    5.96: real time    6.02
    4ORBIT:  cpu time    0.00: real time    0.00

 total amount of memory used by VASP on root node    83034. kBytes
========================================================================

   base      :      30000. kBytes
   nonl-proj :       1925. kBytes
   fftplans  :      17864. kBytes
   grid      :      31769. kBytes
   one-center:         24. kBytes
   wavefun   :       1452. kBytes
 
  
  
 General timing and accounting informations for this job:
 ========================================================
  
                  Total CPU time used (sec):       52.365
                            User time (sec):       51.657
                          System time (sec):        0.708
                         Elapsed time (sec):       53.490
  
                   Maximum memory used (kb):           0.
                   Average memory used (kb):           0.
  
                          Minor page faults:       225852
                          Major page faults:            0
                 Voluntary context switches:         3335
