<?xml version="1.0" encoding="ISO-8859-1"?>
<modeling>
 <generator>
  <i name="program" type="string">vasp </i>
  <i name="version" type="string">5.2.12  </i>
  <i name="subversion" type="string">11Nov11 complex                                                      parallel </i>
  <i name="platform" type="string">LinuxIFC </i>
  <i name="date" type="string">2012 11 03 </i>
  <i name="time" type="string">00:25:02 </i>
 </generator>
 <incar>
  <i type="string" name="PREC">normal</i>
  <i type="int" name="IBRION">     2</i>
  <i type="int" name="NSW">    10</i>
  <i name="ENCUT">    350.00000000</i>
  <i type="int" name="ISMEAR">     0</i>
 </incar>
 <kpoints>
  <generation param="Monkhorst-Pack">
   <v type="int" name="divisions">       1        1        1 </v>
   <v name="usershift">      0.00000000       0.00000000       0.00000000 </v>
   <v name="genvec1">      1.00000000       0.00000000       0.00000000 </v>
   <v name="genvec2">      0.00000000       1.00000000       0.00000000 </v>
   <v name="genvec3">      0.00000000       0.00000000       1.00000000 </v>
   <v name="shift">      0.00000000       0.00000000       0.00000000 </v>
  </generation>
  <varray name="kpointlist" >
   <v>       0.00000000       0.00000000       0.00000000 </v>
  </varray>
  <varray name="weights" >
   <v>       1.00000000 </v>
  </varray>
 </kpoints>
 <parameters>
  <separator name="general" >
   <i type="string" name="SYSTEM">unknown system</i>
   <i type="logical" name="LCOMPAT"> F  </i>
  </separator>
  <separator name="electronic" >
   <i type="string" name="PREC">normal</i>
   <i name="ENMAX">    350.00000000</i>
   <i name="ENAUG">    644.87300000</i>
   <i name="EDIFF">      0.00010000</i>
   <i type="int" name="IALGO">    38</i>
   <i type="int" name="IWAVPR">    11</i>
   <i type="int" name="NBANDS">    12</i>
   <i name="NELECT">     14.00000000</i>
   <i type="int" name="TURBO">     0</i>
   <i type="int" name="IRESTART">     0</i>
   <i type="int" name="NREBOOT">     0</i>
   <i type="int" name="NMIN">     0</i>
   <i name="EREF">      0.00000000</i>
   <separator name="electronic smearing" >
    <i type="int" name="ISMEAR">     0</i>
    <i name="SIGMA">      0.20000000</i>
    <i name="KSPACING">      0.50000000</i>
    <i type="logical" name="KGAMMA"> T  </i>
   </separator>
   <separator name="electronic projectors" >
    <i type="logical" name="LREAL"> F  </i>
    <v name="ROPT">      0.00000000      0.00000000</v>
    <i type="int" name="LMAXPAW">  -100</i>
    <i type="int" name="LMAXMIX">     2</i>
    <i type="logical" name="NLSPLINE"> F  </i>
   </separator>
   <separator name="electronic startup" >
    <i type="int" name="ISTART">     0</i>
    <i type="int" name="ICHARG">     2</i>
    <i type="int" name="INIWAV">     1</i>
   </separator>
   <separator name="electronic spin" >
    <i type="int" name="ISPIN">     1</i>
    <i type="logical" name="LNONCOLLINEAR"> F  </i>
    <v name="MAGMOM">      1.00000000      1.00000000      1.00000000      1.00000000      1.00000000      1.00000000      1.00000000      1.00000000</v>
    <i name="NUPDOWN">     -1.00000000</i>
    <i type="logical" name="LSORBIT"> F  </i>
    <v name="SAXIS">      0.00000000      0.00000000      1.00000000</v>
    <i type="logical" name="LSPIRAL"> F  </i>
    <v name="QSPIRAL">      0.00000000      0.00000000      0.00000000</v>
    <i type="logical" name="LZEROZ"> F  </i>
   </separator>
   <separator name="electronic exchange-correlation" >
    <i type="logical" name="LASPH"> F  </i>
    <i type="logical" name="LMETAGGA"> F  </i>
   </separator>
   <separator name="electronic convergence" >
    <i type="int" name="NELM">    60</i>
    <i type="int" name="NELMDL">    -5</i>
    <i type="int" name="NELMIN">     2</i>
    <i name="ENINI">    350.00000000</i>
    <separator name="electronic convergence detail" >
     <i type="logical" name="LDIAG"> T  </i>
     <i type="logical" name="LSUBROT"> T  </i>
     <i name="WEIMIN">      0.00100000</i>
     <i name="EBREAK">      0.00000208</i>
     <i name="DEPER">      0.30000000</i>
     <i type="int" name="NRMM">     4</i>
     <i name="TIME">      0.40000000</i>
    </separator>
   </separator>
   <separator name="electronic mixer" >
    <i name="AMIX">      0.40000000</i>
    <i name="BMIX">      1.00000000</i>
    <i name="AMIN">      0.10000000</i>
    <i name="AMIX_MAG">      1.60000000</i>
    <i name="BMIX_MAG">      1.00000000</i>
    <separator name="electronic mixer details" >
     <i type="int" name="IMIX">     4</i>
     <i type="int" name="MAXMIX">   -45</i>
     <i name="WC">    100.00000000</i>
     <i type="int" name="INIMIX">     1</i>
     <i type="int" name="MIXPRE">     1</i>
     <i type="int" name="MREMOVE">     5</i>
    </separator>
   </separator>
   <separator name="electronic dipolcorrection" >
    <i type="logical" name="LDIPOL"> F  </i>
    <i type="logical" name="LMONO"> F  </i>
    <i type="int" name="IDIPOL">     0</i>
    <i name="EPSILON">      1.00000000</i>
    <v name="DIPOL">   -100.00000000   -100.00000000   -100.00000000</v>
    <i name="EFIELD">      0.00000000</i>
   </separator>
  </separator>
  <separator name="grids" >
   <i type="int" name="NGX">    40</i>
   <i type="int" name="NGY">    40</i>
   <i type="int" name="NGZ">    40</i>
   <i type="int" name="NGXF">    80</i>
   <i type="int" name="NGYF">    80</i>
   <i type="int" name="NGZF">    80</i>
   <i type="logical" name="ADDGRID"> F  </i>
  </separator>
  <separator name="ionic" >
   <i type="int" name="NSW">    10</i>
   <i type="int" name="IBRION">     2</i>
   <i type="int" name="ISIF">     2</i>
   <i name="PSTRESS">      0.00000000</i>
   <i name="EDIFFG">      0.00100000</i>
   <i type="int" name="NFREE">     1</i>
   <i name="POTIM">      0.50000000</i>
   <i name="SMASS">     -3.00000000</i>
   <i name="SCALEE">      1.00000000</i>
  </separator>
  <separator name="ionic md" >
   <i name="TEBEG">      0.00010000</i>
   <i name="TEEND">      0.00010000</i>
   <i type="int" name="NBLOCK">     1</i>
   <i type="int" name="KBLOCK">    10</i>
   <i type="int" name="NPACO">   256</i>
   <i name="APACO">     16.00000000</i>
  </separator>
  <separator name="symmetry" >
   <i type="int" name="ISYM">     2</i>
   <i name="SYMPREC">      0.00001000</i>
  </separator>
  <separator name="dos" >
   <i type="logical" name="LORBIT"> F  </i>
   <v name="RWIGS">     -1.00000000     -1.00000000</v>
   <i type="int" name="NEDOS">   301</i>
   <i name="EMIN">     10.00000000</i>
   <i name="EMAX">    -10.00000000</i>
   <i name="EFERMI">      0.00000000</i>
  </separator>
  <separator name="writing" >
   <i type="int" name="NWRITE">     2</i>
   <i type="logical" name="LWAVE"> T  </i>
   <i type="logical" name="LCHARG"> T  </i>
   <i type="logical" name="LPARD"> F  </i>
   <i type="logical" name="LVTOT"> F  </i>
   <i type="logical" name="LVHAR"> F  </i>
   <i type="logical" name="LELF"> F  </i>
   <i type="logical" name="LOPTICS"> F  </i>
   <v name="STM">      0.00000000      0.00000000      0.00000000      0.00000000      0.00000000      0.00000000      0.00000000</v>
  </separator>
  <separator name="performance" >
   <i type="int" name="NPAR">     1</i>
   <i type="int" name="NSIM">     4</i>
   <i type="int" name="NBLK">    -1</i>
   <i type="logical" name="LPLANE"> T  </i>
   <i type="logical" name="LSCALAPACK"> F  </i>
   <i type="logical" name="LSCAAWARE"> F  </i>
   <i type="logical" name="LSCALU"> F  </i>
   <i type="logical" name="LASYNC"> F  </i>
   <i type="logical" name="LORBITALREAL"> F  </i>
  </separator>
  <separator name="miscellaneous" >
   <i type="int" name="IDIOT">     3</i>
   <i type="logical" name="LMUSIC"> F  </i>
   <v name="POMASS">      1.00000000     12.01100000</v>
   <v name="DARWINR">      0.00000000      0.00000000</v>
   <v name="DARWINV">      1.00000000      1.00000000</v>
   <i type="logical" name="LCORR"> T  </i>
  </separator>
  <i type="logical" name="GGA_COMPAT"> T  </i>
  <i type="logical" name="LBERRY"> F  </i>
  <i type="int" name="ICORELEVEL">     0</i>
  <i type="logical" name="LDAU"> F  </i>
  <i type="int" name="I_CONSTRAINED_M">     0</i>
  <separator name="electronic exchange-correlation" >
   <i type="string" name="GGA">--</i>
   <i type="int" name="VOSKOWN">     0</i>
   <i type="logical" name="LHFCALC"> F  </i>
   <i type="string" name="PRECFOCK"></i>
   <i type="logical" name="LHFONE"> F  </i>
   <i type="logical" name="LRHFCALC"> F  </i>
   <i type="logical" name="LTHOMAS"> F  </i>
   <i type="logical" name="LMODELHF"> F  </i>
   <i name="ENCUT4O">     -1.00000000</i>
   <i type="int" name="EXXOEP">     0</i>
   <i type="int" name="FOURORBIT">     0</i>
   <i name="AEXX">      0.00000000</i>
   <i name="HFALPHA">      0.00000000</i>
   <i name="ALDAX">      1.00000000</i>
   <i name="AGGAX">      1.00000000</i>
   <i name="ALDAC">      1.00000000</i>
   <i name="AGGAC">      1.00000000</i>
   <i type="int" name="NKREDX">     1</i>
   <i type="int" name="NKREDY">     1</i>
   <i type="int" name="NKREDZ">     1</i>
   <i type="logical" name="SHIFTRED"> F  </i>
   <i type="logical" name="ODDONLY"> F  </i>
   <i type="logical" name="EVENONLY"> F  </i>
   <i type="int" name="LMAXFOCK">     0</i>
   <i type="int" name="NMAXFOCKAE">     0</i>
   <i type="logical" name="LFOCKAEDFT"> F  </i>
   <i name="HFSCREEN">      0.00000000</i>
   <i name="HFSCREENC">      0.00000000</i>
  </separator>
  <separator name="vdW DFT" >
   <i type="logical" name="LUSE_VDW"> F  </i>
   <i name="Zab_VDW">     -0.84910000</i>
   <i name="PARAM1">      0.12340000</i>
   <i name="PARAM2">      1.00000000</i>
   <i name="PARAM3">      0.00000000</i>
  </separator>
  <separator name="model GW" >
   <i type="int" name="MODEL_GW">     0</i>
   <i name="MODEL_EPS0">     38.40000000</i>
   <i name="MODEL_ALPHA">      1.00000000</i>
  </separator>
  <separator name="linear response parameters" >
   <i type="logical" name="LEPSILON"> F  </i>
   <i type="logical" name="LRPA"> F  </i>
   <i type="logical" name="LNABLA"> F  </i>
   <i type="logical" name="LVEL"> F  </i>
   <i type="int" name="KINTER">     0</i>
   <i name="CSHIFT">      0.10000000</i>
   <i name="OMEGAMAX">     -1.00000000</i>
  </separator>
  <separator name="orbital magnetization" >
   <i type="logical" name="NUCIND"> F  </i>
   <v name="MAGPOS">      0.00000000      0.00000000      0.00000000</v>
   <i type="logical" name="LNICSALL"> T  </i>
   <i type="logical" name="ORBITALMAG"> F  </i>
   <i type="logical" name="LMAGBLOCH"> F  </i>
   <i type="logical" name="LCHIMAG"> F  </i>
   <i type="logical" name="LGAUGE"> T  </i>
   <i type="int" name="MAGATOM">     0</i>
   <v name="MAGDIPOL">      0.00000000      0.00000000      0.00000000</v>
   <v name="AVECCONST">      0.00000000      0.00000000      0.00000000</v>
  </separator>
  <separator name="response functions" >
   <i type="logical" name="LADDER"> F  </i>
   <i type="logical" name="LHARTREE"> T  </i>
   <i type="int" name="IBSE">     0</i>
   <i type="logical" name="LTCTE"> F  </i>
   <i type="logical" name="LTETE"> F  </i>
   <i type="logical" name="LFXCEPS"> F  </i>
   <i type="logical" name="L2ORDER"> F  </i>
   <i type="logical" name="LUSEW"> F  </i>
   <i name="ENCUTGW">     -2.00000000</i>
   <i name="ENCUTGWSOFT">     -2.00000000</i>
   <i name="ENCUTLF">     -1.00000000</i>
   <i type="int" name="LMAXMP2">    -1</i>
   <i name="SCISSOR">      0.00000000</i>
   <i type="int" name="NOMEGA">     0</i>
   <i type="int" name="NOMEGAR">     0</i>
   <i type="int" name="NBANDSGW">    -1</i>
   <i type="int" name="NBANDSO">    -1</i>
   <i type="int" name="NBANDSV">    -1</i>
   <i name="OPTEMAX">      0.00000000</i>
   <i type="int" name="NELM">     1</i>
   <i type="int" name="DIM">     3</i>
   <i type="int" name="ANTIRES">     0</i>
   <i name="OMEGAMAX">    -30.00000000</i>
   <i name="OMEGATL">   -200.00000000</i>
   <i type="int" name="OMEGAGRID">     0</i>
   <i name="CSHIFT">     -0.10000000</i>
   <i type="logical" name="SELFENERGY"> F  </i>
   <i type="logical" name="LSPECTRAL"> F  </i>
   <i type="logical" name="ODDONLYGW"> F  </i>
   <i type="logical" name="EVENONLYGW"> F  </i>
   <i type="int" name="NKREDLFX">     1</i>
   <i type="int" name="NKREDLFY">     1</i>
   <i type="int" name="NKREDLFZ">     1</i>
   <i type="int" name="MAXMEM">  1800</i>
   <i type="int" name="TELESCOPE">     0</i>
  </separator>
 </parameters>
 <atominfo>
  <atoms>       8 </atoms>
  <types>       2 </types>
  <array name="atoms" >
   <dimension dim="1">ion</dimension>
   <field type="string">element</field>
   <field type="int">atomtype</field>
   <set>
    <rc><c>H </c><c>   1</c></rc>
    <rc><c>H </c><c>   1</c></rc>
    <rc><c>H </c><c>   1</c></rc>
    <rc><c>H </c><c>   1</c></rc>
    <rc><c>H </c><c>   1</c></rc>
    <rc><c>H </c><c>   1</c></rc>
    <rc><c>C </c><c>   2</c></rc>
    <rc><c>C </c><c>   2</c></rc>
   </set>
  </array>
  <array name="atomtypes" >
   <dimension dim="1">type</dimension>
   <field type="int">atomspertype</field>
   <field type="string">element</field>
   <field>mass</field>
   <field>valence</field>
   <field type="string">pseudopotential</field>
   <set>
    <rc><c>   6</c><c>H </c><c>      1.00000000</c><c>      1.00000000</c><c> PAW_PBE H 15Jun2001                    </c></rc>
    <rc><c>   2</c><c>C </c><c>     12.01100000</c><c>      4.00000000</c><c> PAW_PBE C 08Apr2002                    </c></rc>
   </set>
  </array>
 </atominfo>
 <structure name="initialpos" >
  <crystal>
   <varray name="basis" >
    <v>       8.00000000       0.00000000       0.00000000 </v>
    <v>       0.00000000       8.00000000       0.00000000 </v>
    <v>       0.00000000       0.00000000       8.00000000 </v>
   </varray>
   <i name="volume">    512.00000000 </i>
   <varray name="rec_basis" >
    <v>       0.12500000       0.00000000       0.00000000 </v>
    <v>       0.00000000       0.12500000       0.00000000 </v>
    <v>       0.00000000       0.00000000       0.12500000 </v>
   </varray>
  </crystal>
  <varray name="positions" >
   <v>       0.00000000       0.12736963       0.14465362 </v>
   <v>       0.88969462       0.93631513       0.14465362 </v>
   <v>       0.11030538       0.93631513       0.14465362 </v>
   <v>       0.00000000       0.87263037       0.85534638 </v>
   <v>       0.88969462       0.06368487       0.85534638 </v>
   <v>       0.11030538       0.06368487       0.85534638 </v>
   <v>       0.00000000       0.00000000       0.09527612 </v>
   <v>       0.00000000       0.00000000       0.90472388 </v>
  </varray>
 </structure>
 <calculation>
  <scstep>
   <time name="dav">    0.43    0.43</time>
   <time name="total">    1.24    1.24</time>
   <energy>
    <i name="alphaZ">      1.51367591 </i>
    <i name="ewald">    238.82698518 </i>
    <i name="hartreedc">   -467.83007563 </i>
    <i name="XCdc">     41.11769193 </i>
    <i name="pawpsdc">     80.35084045 </i>
    <i name="pawaedc">    -82.70584614 </i>
    <i name="eentropy">     -0.00000003 </i>
    <i name="bandstr">   -123.04176167 </i>
    <i name="atom">    368.95004178 </i>
    <i name="e_fr_energy">     57.18155177 </i>
    <i name="e_wo_entrp">     57.18155180 </i>
    <i name="e_0_energy">     57.18155178 </i>
   </energy>
  </scstep>
  <scstep>
   <time name="dav">    0.57    0.57</time>
   <time name="total">    0.57    0.57</time>
   <energy>
    <i name="e_fr_energy">    -29.96649317 </i>
    <i name="e_wo_entrp">    -29.96649317 </i>
    <i name="e_0_energy">    -29.96649317 </i>
   </energy>
  </scstep>
  <scstep>
   <time name="dav">    0.53    0.53</time>
   <time name="total">    0.53    0.54</time>
   <energy>
    <i name="e_fr_energy">    -45.01885067 </i>
    <i name="e_wo_entrp">    -45.01885067 </i>
    <i name="e_0_energy">    -45.01885067 </i>
   </energy>
  </scstep>
  <scstep>
   <time name="dav">    0.52    0.52</time>
   <time name="total">    0.52    0.54</time>
   <energy>
    <i name="e_fr_energy">    -45.81227943 </i>
    <i name="e_wo_entrp">    -45.81227943 </i>
    <i name="e_0_energy">    -45.81227943 </i>
   </energy>
  </scstep>
  <scstep>
   <time name="dav">    0.47    0.47</time>
   <time name="total">    0.60    0.62</time>
   <energy>
    <i name="e_fr_energy">    -45.83405275 </i>
    <i name="e_wo_entrp">    -45.83405275 </i>
    <i name="e_0_energy">    -45.83405275 </i>
   </energy>
  </scstep>
  <scstep>
   <time name="dav">    0.42    0.42</time>
   <time name="total">    1.34    1.36</time>
   <energy>
    <i name="e_fr_energy">    -41.52055152 </i>
    <i name="e_wo_entrp">    -41.52055152 </i>
    <i name="e_0_energy">    -41.52055152 </i>
   </energy>
  </scstep>
  <scstep>
   <time name="dav">    0.47    0.47</time>
   <time name="total">    1.39    1.40</time>
   <energy>
    <i name="e_fr_energy">    -40.63875954 </i>
    <i name="e_wo_entrp">    -40.63875954 </i>
    <i name="e_0_energy">    -40.63875954 </i>
   </energy>
  </scstep>
  <scstep>
   <time name="dav">    0.47    0.47</time>
   <time name="total">    1.39    1.42</time>
   <energy>
    <i name="e_fr_energy">    -40.42040002 </i>
    <i name="e_wo_entrp">    -40.42040002 </i>
    <i name="e_0_energy">    -40.42040002 </i>
   </energy>
  </scstep>
  <scstep>
   <time name="dav">    0.52    0.52</time>
   <time name="total">    1.44    1.46</time>
   <energy>
    <i name="e_fr_energy">    -40.40817336 </i>
    <i name="e_wo_entrp">    -40.40817336 </i>
    <i name="e_0_energy">    -40.40817336 </i>
   </energy>
  </scstep>
  <scstep>
   <time name="dav">    0.47    0.47</time>
   <time name="total">    1.39    1.42</time>
   <energy>
    <i name="e_fr_energy">    -40.41594261 </i>
    <i name="e_wo_entrp">    -40.41594261 </i>
    <i name="e_0_energy">    -40.41594261 </i>
   </energy>
  </scstep>
  <scstep>
   <time name="dav">    0.47    0.47</time>
   <time name="total">    1.38    1.39</time>
   <energy>
    <i name="e_fr_energy">    -40.41114099 </i>
    <i name="e_wo_entrp">    -40.41114099 </i>
    <i name="e_0_energy">    -40.41114099 </i>
   </energy>
  </scstep>
  <scstep>
   <time name="dav">    0.42    0.42</time>
   <time name="total">    1.32    1.35</time>
   <energy>
    <i name="e_fr_energy">    -40.41764135 </i>
    <i name="e_wo_entrp">    -40.41764135 </i>
    <i name="e_0_energy">    -40.41764135 </i>
   </energy>
  </scstep>
  <scstep>
   <time name="dav">    0.42    0.42</time>
   <time name="total">    1.31    1.33</time>
   <energy>
    <i name="e_fr_energy">    -40.42032825 </i>
    <i name="e_wo_entrp">    -40.42032825 </i>
    <i name="e_0_energy">    -40.42032825 </i>
   </energy>
  </scstep>
  <scstep>
   <time name="dav">    0.47    0.47</time>
   <time name="total">    1.37    1.60</time>
   <energy>
    <i name="e_fr_energy">    -40.42200624 </i>
    <i name="e_wo_entrp">    -40.42200624 </i>
    <i name="e_0_energy">    -40.42200624 </i>
   </energy>
  </scstep>
  <scstep>
   <time name="dav">    0.42    0.42</time>
   <time name="total">    1.32    1.33</time>
   <energy>
    <i name="e_fr_energy">    -40.42222337 </i>
    <i name="e_wo_entrp">    -40.42222337 </i>
    <i name="e_0_energy">    -40.42222337 </i>
   </energy>
  </scstep>
  <scstep>
   <time name="dav">    0.47    0.47</time>
   <time name="total">    1.38    1.40</time>
   <energy>
    <i name="e_fr_energy">    -40.42236458 </i>
    <i name="e_wo_entrp">    -40.42236458 </i>
    <i name="e_0_energy">    -40.42236458 </i>
   </energy>
  </scstep>
  <scstep>
   <time name="dav">    0.42    0.42</time>
   <time name="total">    1.21    1.23</time>
   <energy>
    <i name="alphaZ">      1.51367591 </i>
    <i name="ewald">    238.82698518 </i>
    <i name="hartreedc">   -539.12098259 </i>
    <i name="XCdc">     45.49639121 </i>
    <i name="pawpsdc">    169.22690545 </i>
    <i name="pawaedc">   -171.91705412 </i>
    <i name="eentropy">      0.00000000 </i>
    <i name="bandstr">   -153.39834408 </i>
    <i name="atom">    368.95004178 </i>
    <i name="e_fr_energy">    -40.42238125 </i>
    <i name="e_wo_entrp">    -40.42238125 </i>
    <i name="e_0_energy">    -40.42238125 </i>
   </energy>
  </scstep>
  <parameters_embedded>
   <separator name="dft+d2" >
    <i type="logical" name="LVDW"> F  </i>
   </separator>
  </parameters_embedded>
  <structure>
   <crystal>
    <varray name="basis" >
     <v>       8.00000000       0.00000000       0.00000000 </v>
     <v>       0.00000000       8.00000000       0.00000000 </v>
     <v>       0.00000000       0.00000000       8.00000000 </v>
    </varray>
    <i name="volume">    512.00000000 </i>
    <varray name="rec_basis" >
     <v>       0.12500000       0.00000000       0.00000000 </v>
     <v>       0.00000000       0.12500000       0.00000000 </v>
     <v>       0.00000000       0.00000000       0.12500000 </v>
    </varray>
   </crystal>
   <varray name="positions" >
    <v>       0.00000000       0.12736963       0.14465362 </v>
    <v>       0.88969462       0.93631513       0.14465362 </v>
    <v>       0.11030538       0.93631513       0.14465362 </v>
    <v>       0.00000000       0.87263037       0.85534638 </v>
    <v>       0.88969462       0.06368487       0.85534638 </v>
    <v>       0.11030538       0.06368487       0.85534638 </v>
    <v>       0.00000000       0.00000000       0.09527612 </v>
    <v>       0.00000000       0.00000000       0.90472388 </v>
   </varray>
  </structure>
  <varray name="forces" >
   <v>       0.00000000       0.28083506       0.13713737 </v>
   <v>      -0.24733495      -0.14073969       0.14069618 </v>
   <v>       0.24733495      -0.14073969       0.14069618 </v>
   <v>       0.00000000      -0.28083506      -0.13713737 </v>
   <v>      -0.24733495       0.14073969      -0.14069618 </v>
   <v>       0.24733495       0.14073969      -0.14069618 </v>
   <v>       0.00000000       0.00281849      -0.28498425 </v>
   <v>       0.00000000      -0.00281849       0.28498425 </v>
  </varray>
  <varray name="stress" >
   <v>      -2.83677277       0.00000000       0.00000000 </v>
   <v>       0.00000000      -2.83828780      -0.00005005 </v>
   <v>       0.00000000      -0.00004904      -3.14834395 </v>
  </varray>
  <energy>
   <i name="e_fr_energy">    -40.42238125 </i>
   <i name="e_wo_entrp">    -40.42238125 </i>
   <i name="e_0_energy">      0.00000000 </i>
  </energy>
  <time name="totalsc">   22.54   23.15</time>
 </calculation>
 <calculation>
  <scstep>
   <time name="dav">    0.42    0.42</time>
   <time name="total">    1.34    1.34</time>
   <energy>
    <i name="alphaZ">      1.51367591 </i>
    <i name="ewald">    234.87209572 </i>
    <i name="hartreedc">   -537.25703915 </i>
    <i name="XCdc">     45.36012459 </i>
    <i name="pawpsdc">    169.22946162 </i>
    <i name="pawaedc">   -171.91957202 </i>
    <i name="eentropy">      0.00000000 </i>
    <i name="bandstr">   -151.16608057 </i>
    <i name="atom">    368.95004178 </i>
    <i name="e_fr_energy">    -40.41729213 </i>
    <i name="e_wo_entrp">    -40.41729213 </i>
    <i name="e_0_energy">    -40.41729213 </i>
   </energy>
  </scstep>
  <scstep>
   <time name="dav">    0.47    0.47</time>
   <time name="total">    1.34    1.34</time>
   <energy>
    <i name="e_fr_energy">    -40.41364752 </i>
    <i name="e_wo_entrp">    -40.41364752 </i>
    <i name="e_0_energy">    -40.41364752 </i>
   </energy>
  </scstep>
  <scstep>
   <time name="dav">    0.47    0.47</time>
   <time name="total">    1.32    1.34</time>
   <energy>
    <i name="e_fr_energy">    -40.41223351 </i>
    <i name="e_wo_entrp">    -40.41223351 </i>
    <i name="e_0_energy">    -40.41223351 </i>
   </energy>
  </scstep>
  <scstep>
   <time name="dav">    0.52    0.52</time>
   <time name="total">    1.26    1.27</time>
   <energy>
    <i name="alphaZ">      1.51367591 </i>
    <i name="ewald">    234.87209572 </i>
    <i name="hartreedc">   -535.73052926 </i>
    <i name="XCdc">     45.26396469 </i>
    <i name="pawpsdc">    165.06312589 </i>
    <i name="pawaedc">   -167.73475789 </i>
    <i name="eentropy">      0.00000000 </i>
    <i name="bandstr">   -152.60984627 </i>
    <i name="atom">    368.95004178 </i>
    <i name="e_fr_energy">    -40.41222945 </i>
    <i name="e_wo_entrp">    -40.41222945 </i>
    <i name="e_0_energy">    -40.41222945 </i>
   </energy>
  </scstep>
  <structure>
   <crystal>
    <varray name="basis" >
     <v>       8.00000000       0.00000000       0.00000000 </v>
     <v>       0.00000000       8.00000000       0.00000000 </v>
     <v>       0.00000000       0.00000000       8.00000000 </v>
    </varray>
    <i name="volume">    512.00000000 </i>
    <varray name="rec_basis" >
     <v>       0.12500000       0.00000000       0.00000000 </v>
     <v>       0.00000000       0.12500000       0.00000000 </v>
     <v>       0.00000000       0.00000000       0.12500000 </v>
    </varray>
   </crystal>
   <varray name="positions" >
    <v>       0.00000000       0.12906315       0.14548061 </v>
    <v>       0.88820311       0.93546642       0.14550207 </v>
    <v>       0.11179689       0.93546642       0.14550207 </v>
    <v>       0.00000000       0.87093685       0.85451939 </v>
    <v>       0.88820311       0.06453358       0.85449793 </v>
    <v>       0.11179689       0.06453358       0.85449793 </v>
    <v>       0.00000000       0.00001700       0.09355758 </v>
    <v>       0.00000000      -0.00001700       0.90644242 </v>
   </varray>
  </structure>
  <varray name="forces" >
   <v>       0.00000000      -0.25679182      -0.10604230 </v>
   <v>       0.22866328       0.13419467      -0.10634124 </v>
   <v>      -0.22866328       0.13419467      -0.10634124 </v>
   <v>       0.00000000       0.25679182       0.10604230 </v>
   <v>       0.22866328      -0.13419467       0.10634124 </v>
   <v>      -0.22866328      -0.13419467       0.10634124 </v>
   <v>       0.00000000      -0.00890421       1.06984143 </v>
   <v>       0.00000000       0.00890421      -1.06984143 </v>
  </varray>
  <varray name="stress" >
   <v>      -8.02634126       0.00000000       0.00000000 </v>
   <v>       0.00000000      -7.95715496       0.02272167 </v>
   <v>       0.00000000       0.02272285      -2.06990795 </v>
  </varray>
  <energy>
   <i name="e_fr_energy">    -40.41222945 </i>
   <i name="e_wo_entrp">    -40.41222945 </i>
   <i name="e_0_energy">      0.00000000 </i>
  </energy>
  <time name="totalsc">    7.10    7.23</time>
 </calculation>
 <calculation>
  <scstep>
   <time name="dav">    0.44    0.44</time>
   <time name="total">    1.37    1.38</time>
   <energy>
    <i name="alphaZ">      1.51367591 </i>
    <i name="ewald">    237.26915890 </i>
    <i name="hartreedc">   -536.76043313 </i>
    <i name="XCdc">     45.33935147 </i>
    <i name="pawpsdc">    164.70962539 </i>
    <i name="pawaedc">   -167.38080335 </i>
    <i name="eentropy">      0.00000000 </i>
    <i name="bandstr">   -154.07183578 </i>
    <i name="atom">    368.95004178 </i>
    <i name="e_fr_energy">    -40.43121881 </i>
    <i name="e_wo_entrp">    -40.43121881 </i>
    <i name="e_0_energy">    -40.43121881 </i>
   </energy>
  </scstep>
  <scstep>
   <time name="dav">    0.50    0.50</time>
   <time name="total">    1.44    1.44</time>
   <energy>
    <i name="e_fr_energy">    -40.43006298 </i>
    <i name="e_wo_entrp">    -40.43006298 </i>
    <i name="e_0_energy">    -40.43006298 </i>
   </energy>
  </scstep>
  <scstep>
   <time name="dav">    0.44    0.44</time>
   <time name="total">    1.42    1.43</time>
   <energy>
    <i name="e_fr_energy">    -40.42953857 </i>
    <i name="e_wo_entrp">    -40.42953857 </i>
    <i name="e_0_energy">    -40.42953857 </i>
   </energy>
  </scstep>
  <scstep>
   <time name="dav">    0.44    0.45</time>
   <time name="total">    1.28    1.33</time>
   <energy>
    <i name="alphaZ">      1.51367591 </i>
    <i name="ewald">    237.26915890 </i>
    <i name="hartreedc">   -537.69492846 </i>
    <i name="XCdc">     45.39911825 </i>
    <i name="pawpsdc">    167.21133115 </i>
    <i name="pawaedc">   -169.89386276 </i>
    <i name="eentropy">      0.00000000 </i>
    <i name="bandstr">   -153.18403057 </i>
    <i name="atom">    368.95004178 </i>
    <i name="e_fr_energy">    -40.42949579 </i>
    <i name="e_wo_entrp">    -40.42949579 </i>
    <i name="e_0_energy">    -40.42949579 </i>
   </energy>
  </scstep>
  <structure>
   <crystal>
    <varray name="basis" >
     <v>       8.00000000       0.00000000       0.00000000 </v>
     <v>       0.00000000       8.00000000       0.00000000 </v>
     <v>       0.00000000       0.00000000       8.00000000 </v>
    </varray>
    <i name="volume">    512.00000000 </i>
    <varray name="rec_basis" >
     <v>       0.12500000       0.00000000       0.00000000 </v>
     <v>       0.00000000       0.12500000       0.00000000 </v>
     <v>       0.00000000       0.00000000       0.12500000 </v>
    </varray>
   </crystal>
   <varray name="positions" >
    <v>       0.00000000       0.12802245       0.14497241 </v>
    <v>       0.88911967       0.93598796       0.14498069 </v>
    <v>       0.11088033       0.93598796       0.14498069 </v>
    <v>       0.00000000       0.87197755       0.85502759 </v>
    <v>       0.88911967       0.06401204       0.85501931 </v>
    <v>       0.11088033       0.06401204       0.85501931 </v>
    <v>       0.00000000       0.00000655       0.09461365 </v>
    <v>       0.00000000      -0.00000655       0.90538635 </v>
   </varray>
  </structure>
  <varray name="forces" >
   <v>       0.00000000       0.06200089       0.04146503 </v>
   <v>      -0.05370978      -0.02893987       0.04348468 </v>
   <v>       0.05370978      -0.02893987       0.04348468 </v>
   <v>       0.00000000      -0.06200089      -0.04146503 </v>
   <v>      -0.05370978       0.02893987      -0.04348468 </v>
   <v>       0.05370978       0.02893987      -0.04348468 </v>
   <v>       0.00000000      -0.00256704       0.24711021 </v>
   <v>       0.00000000       0.00256704      -0.24711021 </v>
  </varray>
  <varray name="stress" >
   <v>      -4.85138728       0.00000000       0.00000000 </v>
   <v>       0.00000000      -4.82276852       0.00889689 </v>
   <v>       0.00000000       0.00889642      -2.62268002 </v>
  </varray>
  <energy>
   <i name="e_fr_energy">    -40.42949579 </i>
   <i name="e_wo_entrp">    -40.42949579 </i>
   <i name="e_0_energy">      0.00000000 </i>
  </energy>
  <time name="totalsc">    7.48    7.61</time>
 </calculation>
 <calculation>
  <scstep>
   <time name="dav">    0.44    0.44</time>
   <time name="total">    1.42    1.42</time>
   <energy>
    <i name="alphaZ">      1.51367591 </i>
    <i name="ewald">    233.75383830 </i>
    <i name="hartreedc">   -535.14279531 </i>
    <i name="XCdc">     45.32880257 </i>
    <i name="pawpsdc">    167.42564376 </i>
    <i name="pawaedc">   -170.10834368 </i>
    <i name="eentropy">      0.00000000 </i>
    <i name="bandstr">   -152.15325919 </i>
    <i name="atom">    368.95004178 </i>
    <i name="e_fr_energy">    -40.43239586 </i>
    <i name="e_wo_entrp">    -40.43239586 </i>
    <i name="e_0_energy">    -40.43239586 </i>
   </energy>
  </scstep>
  <scstep>
   <time name="dav">    0.44    0.44</time>
   <time name="total">    1.42    1.42</time>
   <energy>
    <i name="e_fr_energy">    -40.43154135 </i>
    <i name="e_wo_entrp">    -40.43154135 </i>
    <i name="e_0_energy">    -40.43154135 </i>
   </energy>
  </scstep>
  <scstep>
   <time name="dav">    0.44    0.44</time>
   <time name="total">    1.40    1.41</time>
   <energy>
    <i name="e_fr_energy">    -40.43144652 </i>
    <i name="e_wo_entrp">    -40.43144652 </i>
    <i name="e_0_energy">    -40.43144652 </i>
   </energy>
  </scstep>
  <scstep>
   <time name="dav">    0.45    0.45</time>
   <time name="total">    1.28    1.29</time>
   <energy>
    <i name="alphaZ">      1.51367591 </i>
    <i name="ewald">    233.75383830 </i>
    <i name="hartreedc">   -534.49217219 </i>
    <i name="XCdc">     45.30118179 </i>
    <i name="pawpsdc">    165.68337494 </i>
    <i name="pawaedc">   -168.35679474 </i>
    <i name="eentropy">      0.00000000 </i>
    <i name="bandstr">   -152.78450518 </i>
    <i name="atom">    368.95004178 </i>
    <i name="e_fr_energy">    -40.43135938 </i>
    <i name="e_wo_entrp">    -40.43135938 </i>
    <i name="e_0_energy">    -40.43135938 </i>
   </energy>
  </scstep>
  <structure>
   <crystal>
    <varray name="basis" >
     <v>       8.00000000       0.00000000       0.00000000 </v>
     <v>       0.00000000       8.00000000       0.00000000 </v>
     <v>       0.00000000       0.00000000       8.00000000 </v>
    </varray>
    <i name="volume">    512.00000000 </i>
    <varray name="rec_basis" >
     <v>       0.12500000       0.00000000       0.00000000 </v>
     <v>       0.00000000       0.12500000       0.00000000 </v>
     <v>       0.00000000       0.00000000       0.12500000 </v>
    </varray>
   </crystal>
   <varray name="positions" >
    <v>       0.00000000       0.12865586       0.14534090 </v>
    <v>       0.88856656       0.93568181       0.14536372 </v>
    <v>       0.11143344       0.93568181       0.14536372 </v>
    <v>       0.00000000       0.87134414       0.85465910 </v>
    <v>       0.88856656       0.06431819       0.85463628 </v>
    <v>       0.11143344       0.06431819       0.85463628 </v>
    <v>       0.00000000      -0.00000396       0.09561068 </v>
    <v>       0.00000000       0.00000396       0.90438932 </v>
   </varray>
  </structure>
  <varray name="forces" >
   <v>       0.00000000      -0.04587530       0.01853870 </v>
   <v>       0.03858362       0.02362133       0.02049391 </v>
   <v>      -0.03858362       0.02362133       0.02049391 </v>
   <v>       0.00000000       0.04587530      -0.01853870 </v>
   <v>       0.03858362      -0.02362133      -0.02049391 </v>
   <v>      -0.03858362      -0.02362133      -0.02049391 </v>
   <v>       0.00000000       0.00301941      -0.10693804 </v>
   <v>       0.00000000      -0.00301941       0.10693804 </v>
  </varray>
  <varray name="stress" >
   <v>      -5.74327378       0.00000000       0.00000000 </v>
   <v>       0.00000000      -5.71800083       0.01008569 </v>
   <v>       0.00000000       0.01008588      -4.79213536 </v>
  </varray>
  <energy>
   <i name="e_fr_energy">    -40.43135938 </i>
   <i name="e_wo_entrp">    -40.43135938 </i>
   <i name="e_0_energy">      0.00000000 </i>
  </energy>
  <time name="totalsc">    7.48    7.55</time>
 </calculation>
 <calculation>
  <scstep>
   <time name="dav">    0.45    0.45</time>
   <time name="total">    1.42    1.42</time>
   <energy>
    <i name="alphaZ">      1.51367591 </i>
    <i name="ewald">    234.77882390 </i>
    <i name="hartreedc">   -535.24844049 </i>
    <i name="XCdc">     45.32200545 </i>
    <i name="pawpsdc">    165.49892853 </i>
    <i name="pawaedc">   -168.17250952 </i>
    <i name="eentropy">      0.00000000 </i>
    <i name="bandstr">   -153.07440962 </i>
    <i name="atom">    368.95004178 </i>
    <i name="e_fr_energy">    -40.43188406 </i>
    <i name="e_wo_entrp">    -40.43188406 </i>
    <i name="e_0_energy">    -40.43188406 </i>
   </energy>
  </scstep>
  <scstep>
   <time name="dav">    0.44    0.45</time>
   <time name="total">    1.42    1.43</time>
   <energy>
    <i name="e_fr_energy">    -40.43176691 </i>
    <i name="e_wo_entrp">    -40.43176691 </i>
    <i name="e_0_energy">    -40.43176691 </i>
   </energy>
  </scstep>
  <scstep>
   <time name="dav">    0.50    0.50</time>
   <time name="total">    1.34    1.35</time>
   <energy>
    <i name="alphaZ">      1.51367591 </i>
    <i name="ewald">    234.77882390 </i>
    <i name="hartreedc">   -535.50982611 </i>
    <i name="XCdc">     45.33265212 </i>
    <i name="pawpsdc">    166.09819709 </i>
    <i name="pawaedc">   -168.77524209 </i>
    <i name="eentropy">      0.00000000 </i>
    <i name="bandstr">   -152.82008246 </i>
    <i name="atom">    368.95004178 </i>
    <i name="e_fr_energy">    -40.43175986 </i>
    <i name="e_wo_entrp">    -40.43175986 </i>
    <i name="e_0_energy">    -40.43175986 </i>
   </energy>
  </scstep>
  <structure>
   <crystal>
    <varray name="basis" >
     <v>       8.00000000       0.00000000       0.00000000 </v>
     <v>       0.00000000       8.00000000       0.00000000 </v>
     <v>       0.00000000       0.00000000       8.00000000 </v>
    </varray>
    <i name="volume">    512.00000000 </i>
    <varray name="rec_basis" >
     <v>       0.12500000       0.00000000       0.00000000 </v>
     <v>       0.00000000       0.12500000       0.00000000 </v>
     <v>       0.00000000       0.00000000       0.12500000 </v>
    </varray>
   </crystal>
   <varray name="positions" >
    <v>       0.00000000       0.12847040       0.14523301 </v>
    <v>       0.88872850       0.93577145       0.14525157 </v>
    <v>       0.11127150       0.93577145       0.14525157 </v>
    <v>       0.00000000       0.87152960       0.85476699 </v>
    <v>       0.88872850       0.06422855       0.85474843 </v>
    <v>       0.11127150       0.06422855       0.85474843 </v>
    <v>       0.00000000      -0.00000088       0.09531876 </v>
    <v>       0.00000000       0.00000088       0.90468124 </v>
   </varray>
  </structure>
  <varray name="forces" >
   <v>       0.00000000      -0.00722617       0.02853857 </v>
   <v>       0.00535646       0.00471488       0.03058287 </v>
   <v>      -0.00535646       0.00471488       0.03058287 </v>
   <v>       0.00000000       0.00722617      -0.02853857 </v>
   <v>       0.00535646      -0.00471488      -0.03058287 </v>
   <v>      -0.00535646      -0.00471488      -0.03058287 </v>
   <v>       0.00000000       0.00163190      -0.00161456 </v>
   <v>       0.00000000      -0.00163190       0.00161456 </v>
  </varray>
  <varray name="stress" >
   <v>      -5.66297633       0.00000000       0.00000000 </v>
   <v>       0.00000000      -5.63769338       0.00905459 </v>
   <v>       0.00000000       0.00905502      -4.26456466 </v>
  </varray>
  <energy>
   <i name="e_fr_energy">    -40.43175986 </i>
   <i name="e_wo_entrp">    -40.43175986 </i>
   <i name="e_0_energy">      0.00000000 </i>
  </energy>
  <time name="totalsc">    5.96    6.02</time>
  <eigenvalues>
   <array>
    <dimension dim="1">band</dimension>
    <dimension dim="2">kpoint</dimension>
    <dimension dim="3">spin</dimension>
    <field>eigene</field>
    <field>occ</field>
    <set>
     <set comment="spin 1">
      <set comment="kpoint 1">
       <r>  -18.0924    1.0000 </r>
       <r>  -14.5213    1.0000 </r>
       <r>  -10.0428    1.0000 </r>
       <r>  -10.0422    1.0000 </r>
       <r>   -8.4325    1.0000 </r>
       <r>   -7.6398    1.0000 </r>
       <r>   -7.6389    1.0000 </r>
       <r>   -0.5822    0.0000 </r>
       <r>    1.3537    0.0000 </r>
       <r>    1.3843    0.0000 </r>
       <r>    1.4204    0.0000 </r>
       <r>    1.5153    0.0000 </r>
      </set>
     </set>
    </set>
   </array>
  </eigenvalues>
  <separator name="orbital magnetization" >
   <v name="MAGDIPOLOUT">      0.00000000      0.00000000      0.00000000</v>
  </separator>
  <dos>
   <i name="efermi">     -6.63585938 </i>
   <total>
    <array>
     <dimension dim="1">gridpoints</dimension>
     <dimension dim="2">spin</dimension>
     <field>energy</field>
     <field>total</field>
     <field>integrated</field>
     <set>
      <set comment="spin 1">
       <r>   -20.0924     0.0000     0.0000 </r>
       <r>   -20.0138     0.0000     0.0000 </r>
       <r>   -19.9351     0.0000     0.0000 </r>
       <r>   -19.8564     0.0000     0.0000 </r>
       <r>   -19.7777     0.0000     0.0000 </r>
       <r>   -19.6990     0.0000     0.0000 </r>
       <r>   -19.6203     0.0000     0.0000 </r>
       <r>   -19.5416     0.0000     0.0000 </r>
       <r>   -19.4629     0.0000     0.0000 </r>
       <r>   -19.3842     0.0000     0.0000 </r>
       <r>   -19.3055     0.0000     0.0000 </r>
       <r>   -19.2268     0.0000     0.0000 </r>
       <r>   -19.1481     0.0000     0.0000 </r>
       <r>   -19.0694     0.0000     0.0000 </r>
       <r>   -18.9908     0.0000     0.0000 </r>
       <r>   -18.9121     0.0000     0.0000 </r>
       <r>   -18.8334     0.0000     0.0000 </r>
       <r>   -18.7547     0.0000     0.0000 </r>
       <r>   -18.6760     0.0004     0.0000 </r>
       <r>   -18.5973     0.0041     0.0004 </r>
       <r>   -18.5186     0.0283     0.0026 </r>
       <r>   -18.4399     0.1453     0.0140 </r>
       <r>   -18.3612     0.5510     0.0574 </r>
       <r>   -18.2825     1.5449     0.1789 </r>
       <r>   -18.2038     3.2024     0.4310 </r>
       <r>   -18.1251     4.9086     0.8172 </r>
       <r>   -18.0464     5.5639     1.2551 </r>
       <r>   -17.9677     4.6641     1.6221 </r>
       <r>   -17.8891     2.8914     1.8496 </r>
       <r>   -17.8104     1.3253     1.9539 </r>
       <r>   -17.7317     0.4491     1.9893 </r>
       <r>   -17.6530     0.1125     1.9981 </r>
       <r>   -17.5743     0.0208     1.9998 </r>
       <r>   -17.4956     0.0028     2.0000 </r>
       <r>   -17.4169     0.0003     2.0000 </r>
       <r>   -17.3382     0.0000     2.0000 </r>
       <r>   -17.2595     0.0000     2.0000 </r>
       <r>   -17.1808     0.0000     2.0000 </r>
       <r>   -17.1021     0.0000     2.0000 </r>
       <r>   -17.0234     0.0000     2.0000 </r>
       <r>   -16.9447     0.0000     2.0000 </r>
       <r>   -16.8661     0.0000     2.0000 </r>
       <r>   -16.7874     0.0000     2.0000 </r>
       <r>   -16.7087     0.0000     2.0000 </r>
       <r>   -16.6300     0.0000     2.0000 </r>
       <r>   -16.5513     0.0000     2.0000 </r>
       <r>   -16.4726     0.0000     2.0000 </r>
       <r>   -16.3939     0.0000     2.0000 </r>
       <r>   -16.3152     0.0000     2.0000 </r>
       <r>   -16.2365     0.0000     2.0000 </r>
       <r>   -16.1578     0.0000     2.0000 </r>
       <r>   -16.0791     0.0000     2.0000 </r>
       <r>   -16.0004     0.0000     2.0000 </r>
       <r>   -15.9217     0.0000     2.0000 </r>
       <r>   -15.8430     0.0000     2.0000 </r>
       <r>   -15.7644     0.0000     2.0000 </r>
       <r>   -15.6857     0.0000     2.0000 </r>
       <r>   -15.6070     0.0000     2.0000 </r>
       <r>   -15.5283     0.0000     2.0000 </r>
       <r>   -15.4496     0.0000     2.0000 </r>
       <r>   -15.3709     0.0000     2.0000 </r>
       <r>   -15.2922     0.0000     2.0000 </r>
       <r>   -15.2135     0.0000     2.0000 </r>
       <r>   -15.1348     0.0002     2.0000 </r>
       <r>   -15.0561     0.0018     2.0002 </r>
       <r>   -14.9774     0.0140     2.0013 </r>
       <r>   -14.8987     0.0807     2.0076 </r>
       <r>   -14.8200     0.3436     2.0347 </r>
       <r>   -14.7414     1.0810     2.1197 </r>
       <r>   -14.6627     2.5139     2.3175 </r>
       <r>   -14.5840     4.3227     2.6577 </r>
       <r>   -14.5053     5.4967     3.0903 </r>
       <r>   -14.4266     5.1690     3.4970 </r>
       <r>   -14.3479     3.5947     3.7799 </r>
       <r>   -14.2692     1.8486     3.9254 </r>
       <r>   -14.1905     0.7029     3.9807 </r>
       <r>   -14.1118     0.1975     3.9962 </r>
       <r>   -14.0331     0.0410     3.9994 </r>
       <r>   -13.9544     0.0063     3.9999 </r>
       <r>   -13.8757     0.0007     4.0000 </r>
       <r>   -13.7970     0.0001     4.0000 </r>
       <r>   -13.7183     0.0000     4.0000 </r>
       <r>   -13.6397     0.0000     4.0000 </r>
       <r>   -13.5610     0.0000     4.0000 </r>
       <r>   -13.4823     0.0000     4.0000 </r>
       <r>   -13.4036     0.0000     4.0000 </r>
       <r>   -13.3249     0.0000     4.0000 </r>
       <r>   -13.2462     0.0000     4.0000 </r>
       <r>   -13.1675     0.0000     4.0000 </r>
       <r>   -13.0888     0.0000     4.0000 </r>
       <r>   -13.0101     0.0000     4.0000 </r>
       <r>   -12.9314     0.0000     4.0000 </r>
       <r>   -12.8527     0.0000     4.0000 </r>
       <r>   -12.7740     0.0000     4.0000 </r>
       <r>   -12.6953     0.0000     4.0000 </r>
       <r>   -12.6167     0.0000     4.0000 </r>
       <r>   -12.5380     0.0000     4.0000 </r>
       <r>   -12.4593     0.0000     4.0000 </r>
       <r>   -12.3806     0.0000     4.0000 </r>
       <r>   -12.3019     0.0000     4.0000 </r>
       <r>   -12.2232     0.0000     4.0000 </r>
       <r>   -12.1445     0.0000     4.0000 </r>
       <r>   -12.0658     0.0000     4.0000 </r>
       <r>   -11.9871     0.0000     4.0000 </r>
       <r>   -11.9084     0.0000     4.0000 </r>
       <r>   -11.8297     0.0000     4.0000 </r>
       <r>   -11.7510     0.0000     4.0000 </r>
       <r>   -11.6723     0.0000     4.0000 </r>
       <r>   -11.5936     0.0000     4.0000 </r>
       <r>   -11.5150     0.0000     4.0000 </r>
       <r>   -11.4363     0.0000     4.0000 </r>
       <r>   -11.3576     0.0000     4.0000 </r>
       <r>   -11.2789     0.0000     4.0000 </r>
       <r>   -11.2002     0.0000     4.0000 </r>
       <r>   -11.1215     0.0000     4.0000 </r>
       <r>   -11.0428     0.0000     4.0000 </r>
       <r>   -10.9641     0.0000     4.0000 </r>
       <r>   -10.8854     0.0000     4.0000 </r>
       <r>   -10.8067     0.0000     4.0000 </r>
       <r>   -10.7280     0.0000     4.0000 </r>
       <r>   -10.6493     0.0004     4.0000 </r>
       <r>   -10.5706     0.0043     4.0004 </r>
       <r>   -10.4920     0.0329     4.0030 </r>
       <r>   -10.4133     0.1848     4.0175 </r>
       <r>   -10.3346     0.7667     4.0778 </r>
       <r>   -10.2559     2.3507     4.2628 </r>
       <r>   -10.1772     5.3277     4.6821 </r>
       <r>   -10.0985     8.9286     5.3847 </r>
       <r>   -10.0198    11.0652     6.2554 </r>
       <r>    -9.9411    10.1415     7.0535 </r>
       <r>    -9.8624     6.8738     7.5944 </r>
       <r>    -9.7837     3.4451     7.8655 </r>
       <r>    -9.7050     1.2766     7.9660 </r>
       <r>    -9.6263     0.3497     7.9935 </r>
       <r>    -9.5476     0.0708     7.9991 </r>
       <r>    -9.4689     0.0106     7.9999 </r>
       <r>    -9.3903     0.0012     8.0000 </r>
       <r>    -9.3116     0.0001     8.0000 </r>
       <r>    -9.2329     0.0000     8.0000 </r>
       <r>    -9.1542     0.0000     8.0000 </r>
       <r>    -9.0755     0.0001     8.0000 </r>
       <r>    -8.9968     0.0008     8.0001 </r>
       <r>    -8.9181     0.0067     8.0006 </r>
       <r>    -8.8394     0.0434     8.0040 </r>
       <r>    -8.7607     0.2070     8.0203 </r>
       <r>    -8.6820     0.7292     8.0777 </r>
       <r>    -8.6033     1.8987     8.2271 </r>
       <r>    -8.5246     3.6556     8.5148 </r>
       <r>    -8.4459     5.2045     8.9243 </r>
       <r>    -8.3673     5.4796     9.3555 </r>
       <r>    -8.2886     4.2667     9.6913 </r>
       <r>    -8.2099     2.4579     9.8847 </r>
       <r>    -8.1312     1.0573     9.9679 </r>
       <r>    -8.0525     0.4049     9.9998 </r>
       <r>    -7.9738     0.4465    10.0349 </r>
       <r>    -7.8951     1.3479    10.1410 </r>
       <r>    -7.8164     3.5613    10.4212 </r>
       <r>    -7.7377     7.0191    10.9736 </r>
       <r>    -7.6590    10.2340    11.7789 </r>
       <r>    -7.5803    11.0351    12.6473 </r>
       <r>    -7.5016     8.7997    13.3398 </r>
       <r>    -7.4229     5.1892    13.7481 </r>
       <r>    -7.3442     2.2627    13.9262 </r>
       <r>    -7.2656     0.7293    13.9836 </r>
       <r>    -7.1869     0.1738    13.9972 </r>
       <r>    -7.1082     0.0306    13.9997 </r>
       <r>    -7.0295     0.0040    14.0000 </r>
       <r>    -6.9508     0.0004    14.0000 </r>
       <r>    -6.8721     0.0000    14.0000 </r>
       <r>    -6.7934     0.0000    14.0000 </r>
       <r>    -6.7147     0.0000    14.0000 </r>
       <r>    -6.6360     0.0000    14.0000 </r>
       <r>    -6.5573     0.0000    14.0000 </r>
       <r>    -6.4786     0.0000    14.0000 </r>
       <r>    -6.3999     0.0000    14.0000 </r>
       <r>    -6.3212     0.0000    14.0000 </r>
       <r>    -6.2426     0.0000    14.0000 </r>
       <r>    -6.1639     0.0000    14.0000 </r>
       <r>    -6.0852     0.0000    14.0000 </r>
       <r>    -6.0065     0.0000    14.0000 </r>
       <r>    -5.9278     0.0000    14.0000 </r>
       <r>    -5.8491     0.0000    14.0000 </r>
       <r>    -5.7704     0.0000    14.0000 </r>
       <r>    -5.6917     0.0000    14.0000 </r>
       <r>    -5.6130     0.0000    14.0000 </r>
       <r>    -5.5343     0.0000    14.0000 </r>
       <r>    -5.4556     0.0000    14.0000 </r>
       <r>    -5.3769     0.0000    14.0000 </r>
       <r>    -5.2982     0.0000    14.0000 </r>
       <r>    -5.2195     0.0000    14.0000 </r>
       <r>    -5.1409     0.0000    14.0000 </r>
       <r>    -5.0622     0.0000    14.0000 </r>
       <r>    -4.9835     0.0000    14.0000 </r>
       <r>    -4.9048     0.0000    14.0000 </r>
       <r>    -4.8261     0.0000    14.0000 </r>
       <r>    -4.7474     0.0000    14.0000 </r>
       <r>    -4.6687     0.0000    14.0000 </r>
       <r>    -4.5900     0.0000    14.0000 </r>
       <r>    -4.5113     0.0000    14.0000 </r>
       <r>    -4.4326     0.0000    14.0000 </r>
       <r>    -4.3539     0.0000    14.0000 </r>
       <r>    -4.2752     0.0000    14.0000 </r>
       <r>    -4.1965     0.0000    14.0000 </r>
       <r>    -4.1179     0.0000    14.0000 </r>
       <r>    -4.0392     0.0000    14.0000 </r>
       <r>    -3.9605     0.0000    14.0000 </r>
       <r>    -3.8818     0.0000    14.0000 </r>
       <r>    -3.8031     0.0000    14.0000 </r>
       <r>    -3.7244     0.0000    14.0000 </r>
       <r>    -3.6457     0.0000    14.0000 </r>
       <r>    -3.5670     0.0000    14.0000 </r>
       <r>    -3.4883     0.0000    14.0000 </r>
       <r>    -3.4096     0.0000    14.0000 </r>
       <r>    -3.3309     0.0000    14.0000 </r>
       <r>    -3.2522     0.0000    14.0000 </r>
       <r>    -3.1735     0.0000    14.0000 </r>
       <r>    -3.0948     0.0000    14.0000 </r>
       <r>    -3.0162     0.0000    14.0000 </r>
       <r>    -2.9375     0.0000    14.0000 </r>
       <r>    -2.8588     0.0000    14.0000 </r>
       <r>    -2.7801     0.0000    14.0000 </r>
       <r>    -2.7014     0.0000    14.0000 </r>
       <r>    -2.6227     0.0000    14.0000 </r>
       <r>    -2.5440     0.0000    14.0000 </r>
       <r>    -2.4653     0.0000    14.0000 </r>
       <r>    -2.3866     0.0000    14.0000 </r>
       <r>    -2.3079     0.0000    14.0000 </r>
       <r>    -2.2292     0.0000    14.0000 </r>
       <r>    -2.1505     0.0000    14.0000 </r>
       <r>    -2.0718     0.0000    14.0000 </r>
       <r>    -1.9932     0.0000    14.0000 </r>
       <r>    -1.9145     0.0000    14.0000 </r>
       <r>    -1.8358     0.0000    14.0000 </r>
       <r>    -1.7571     0.0000    14.0000 </r>
       <r>    -1.6784     0.0000    14.0000 </r>
       <r>    -1.5997     0.0000    14.0000 </r>
       <r>    -1.5210     0.0000    14.0000 </r>
       <r>    -1.4423     0.0000    14.0000 </r>
       <r>    -1.3636     0.0000    14.0000 </r>
       <r>    -1.2849     0.0000    14.0000 </r>
       <r>    -1.2062     0.0001    14.0000 </r>
       <r>    -1.1275     0.0013    14.0001 </r>
       <r>    -1.0488     0.0109    14.0010 </r>
       <r>    -0.9701     0.0651    14.0061 </r>
       <r>    -0.8915     0.2884    14.0288 </r>
       <r>    -0.8128     0.9444    14.1031 </r>
       <r>    -0.7341     2.2864    14.2830 </r>
       <r>    -0.6554     4.0926    14.6051 </r>
       <r>    -0.5767     5.4172    15.0314 </r>
       <r>    -0.4980     5.3029    15.4487 </r>
       <r>    -0.4193     3.8389    15.7508 </r>
       <r>    -0.3406     2.0551    15.9125 </r>
       <r>    -0.2619     0.8134    15.9765 </r>
       <r>    -0.1832     0.2380    15.9952 </r>
       <r>    -0.1045     0.0515    15.9993 </r>
       <r>    -0.0258     0.0082    15.9999 </r>
       <r>     0.0529     0.0010    16.0000 </r>
       <r>     0.1315     0.0001    16.0000 </r>
       <r>     0.2102     0.0000    16.0000 </r>
       <r>     0.2889     0.0000    16.0000 </r>
       <r>     0.3676     0.0000    16.0000 </r>
       <r>     0.4463     0.0000    16.0000 </r>
       <r>     0.5250     0.0000    16.0000 </r>
       <r>     0.6037     0.0000    16.0000 </r>
       <r>     0.6824     0.0000    16.0000 </r>
       <r>     0.7611     0.0005    16.0000 </r>
       <r>     0.8398     0.0051    16.0004 </r>
       <r>     0.9185     0.0387    16.0035 </r>
       <r>     0.9972     0.2215    16.0209 </r>
       <r>     1.0759     0.9467    16.0954 </r>
       <r>     1.1546     3.0361    16.3343 </r>
       <r>     1.2332     7.3393    16.9119 </r>
       <r>     1.3119    13.4531    17.9705 </r>
       <r>     1.3906    18.8433    19.4534 </r>
       <r>     1.4693    20.3486    21.0546 </r>
       <r>     1.5480    17.0929    22.3997 </r>
       <r>     1.6267    11.2432    23.2845 </r>
       <r>     1.7054     5.8032    23.7412 </r>
       <r>     1.7841     2.3423    23.9255 </r>
       <r>     1.8628     0.7334    23.9832 </r>
       <r>     1.9415     0.1764    23.9971 </r>
       <r>     2.0202     0.0322    23.9996 </r>
       <r>     2.0989     0.0044    24.0000 </r>
       <r>     2.1776     0.0005    24.0000 </r>
       <r>     2.2562     0.0000    24.0000 </r>
       <r>     2.3349     0.0000    24.0000 </r>
       <r>     2.4136     0.0000    24.0000 </r>
       <r>     2.4923     0.0000    24.0000 </r>
       <r>     2.5710     0.0000    24.0000 </r>
       <r>     2.6497     0.0000    24.0000 </r>
       <r>     2.7284     0.0000    24.0000 </r>
       <r>     2.8071     0.0000    24.0000 </r>
       <r>     2.8858     0.0000    24.0000 </r>
       <r>     2.9645     0.0000    24.0000 </r>
       <r>     3.0432     0.0000    24.0000 </r>
       <r>     3.1219     0.0000    24.0000 </r>
       <r>     3.2006     0.0000    24.0000 </r>
       <r>     3.2793     0.0000    24.0000 </r>
       <r>     3.3579     0.0000    24.0000 </r>
       <r>     3.4366     0.0000    24.0000 </r>
       <r>     3.5153     0.0000    24.0000 </r>
      </set>
     </set>
    </array>
   </total>
  </dos>
 </calculation>
 <structure name="finalpos" >
  <crystal>
   <varray name="basis" >
    <v>       8.00000000       0.00000000       0.00000000 </v>
    <v>       0.00000000       8.00000000       0.00000000 </v>
    <v>       0.00000000       0.00000000       8.00000000 </v>
   </varray>
   <i name="volume">    512.00000000 </i>
   <varray name="rec_basis" >
    <v>       0.12500000       0.00000000       0.00000000 </v>
    <v>       0.00000000       0.12500000       0.00000000 </v>
    <v>       0.00000000       0.00000000       0.12500000 </v>
   </varray>
  </crystal>
  <varray name="positions" >
   <v>       0.00000000       0.12847040       0.14523301 </v>
   <v>       0.88872850       0.93577145       0.14525157 </v>
   <v>       0.11127150       0.93577145       0.14525157 </v>
   <v>       0.00000000       0.87152960       0.85476699 </v>
   <v>       0.88872850       0.06422855       0.85474843 </v>
   <v>       0.11127150       0.06422855       0.85474843 </v>
   <v>       0.00000000      -0.00000088       0.09531876 </v>
   <v>       0.00000000       0.00000088       0.90468124 </v>
  </varray>
 </structure>
</modeling>
